SIRIUS 7.3.1, git hash: e81e9492ec53466ad9d1b12753324922ede71b54

     Program PWSCF v.7.0 starts on  7Apr2022 at 12:26:34 
        Git branch: ristretto
        Last git commit: 0d250420fe9dc1130ccb85a5f0c9b79bdce953ee-dirty
        Last git commit date: Thu Apr 7 07:43:18 2022 +0000
        Last git commit subject: remove write() statement

     This program is part of the open-source Quantum ESPRESSO suite
     for quantum simulation of materials; please cite
         "P. Giannozzi et al., J. Phys.:Condens. Matter 21 395502 (2009);
         "P. Giannozzi et al., J. Phys.:Condens. Matter 29 465901 (2017);
         "P. Giannozzi et al., J. Chem. Phys. 152 154105 (2020);
          URL http://www.quantum-espresso.org", 
     in publications or presentations arising from this work. More details at
     http://www.quantum-espresso.org/quote

     Parallel version (MPI & OpenMP), running on       4 processor cores
     Number of MPI processes:                 1
     Threads/MPI process:                     4

     MPI processes distributed on     1 nodes
     53674 MiB available memory on the printing compute node when the environment starts

     Reading input from pw.in
     Message from routine read_cards :
     DEPRECATED: no units specified in CELL_PARAMETERS card

     Current dimensions of program PWSCF are:
     Max number of different atomic species (ntypx) = 10
     Max number of k-points (npk) =  40000
     Max angular momentum in pseudopotentials (lmaxx) =  4

     IMPORTANT: XC functional enforced from input :
     Exchange-correlation= XC-000I-000I-101L-130L-000I-000I
                           (   0   0 101 130   0   0   0)
     Any further DFT definition will be discarded
     Please, verify this is what you really want

     Message from routine setup:
     using ibrav=0 with symmetry is DISCOURAGED, use correct ibrav instead

     Subspace diagonalization in iterative solution of the eigenvalue problem:
     a serial algorithm will be used


     G-vector sticks info
     --------------------
     sticks:   dense  smooth     PW     G-vecs:    dense   smooth      PW
     Sum        2567    1045    321                64627    16817    2961

     Using Slab Decomposition



     bravais-lattice index     =            0
     lattice parameter (alat)  =       7.8800  a.u.
     unit-cell volume          =     244.6519 (a.u.)^3
     number of atoms/cell      =            4
     number of atomic types    =            3
     number of electrons       =        48.00
     number of Kohn-Sham states=           29
     kinetic-energy cutoff     =      64.0000  Ry
     charge density cutoff     =     625.0000  Ry
     scf convergence threshold =      1.0E-13
     mixing beta               =       0.2500
     number of iterations used =            8  plain     mixing
     Exchange-correlation= XC-000I-000I-101L-130L-000I-000I
                           (   0   0 101 130   0   0   0)
     Hubbard projectors: atomic
     Hubbard parameters of DFT+U (Dudarev formulation) in eV:
     U(Ni1-3d) =  8.0000
     U(Ni2-3d) =  8.0000

     Internal variables: lda_plus_u =T, lda_plus_u_kind = 0

     celldm(1)=   7.880000  celldm(2)=   0.000000  celldm(3)=   0.000000
     celldm(4)=   0.000000  celldm(5)=   0.000000  celldm(6)=   0.000000

     crystal axes: (cart. coord. in units of alat)
               a(1) = (   1.000000   0.500000   0.500000 )  
               a(2) = (   0.500000   1.000000   0.500000 )  
               a(3) = (   0.500000   0.500000   1.000000 )  

     reciprocal axes: (cart. coord. in units 2 pi/alat)
               b(1) = (  1.500000 -0.500000 -0.500000 )  
               b(2) = ( -0.500000  1.500000 -0.500000 )  
               b(3) = ( -0.500000 -0.500000  1.500000 )  


     PseudoPot. # 1 for Ni read from file:
     ./ni_pbe_v1.4.uspp.F.UPF
     MD5 check sum: 1ee80287db30b12d2bc1f57a5b5d6409
     Pseudo is Ultrasoft + core correction, Zval = 18.0
     Generated by new atomic code, or converted to UPF format
     Using radial grid of  865 points,  6 beta functions with: 
                l(1) =   0
                l(2) =   0
                l(3) =   1
                l(4) =   1
                l(5) =   2
                l(6) =   2
     Q(r) pseudized with 10 coefficients,  rinner =    0.980   0.980   0.980
                                                       0.980   0.980

     PseudoPot. # 2 for Ni read from file:
     ./ni_pbe_v1.4.uspp.F.UPF
     MD5 check sum: 1ee80287db30b12d2bc1f57a5b5d6409
     Pseudo is Ultrasoft + core correction, Zval = 18.0
     Generated by new atomic code, or converted to UPF format
     Using radial grid of  865 points,  6 beta functions with: 
                l(1) =   0
                l(2) =   0
                l(3) =   1
                l(4) =   1
                l(5) =   2
                l(6) =   2
     Q(r) pseudized with 10 coefficients,  rinner =    0.980   0.980   0.980
                                                       0.980   0.980

     PseudoPot. # 3 for O  read from file:
     ./o_pbe_v1.2.uspp.F.UPF
     MD5 check sum: 734c27235a0248c51dbae37a1fbe46ec
     Pseudo is Ultrasoft + core correction, Zval =  6.0
     Generated by new atomic code, or converted to UPF format
     Using radial grid of  737 points,  5 beta functions with: 
                l(1) =   0
                l(2) =   0
                l(3) =   1
                l(4) =   1
                l(5) =   2
     Q(r) pseudized with  8 coefficients,  rinner =    0.900   0.900   0.900
                                                       0.900   0.900

     atomic species   valence    mass     pseudopotential
        Ni1           18.00     1.00000     Ni( 1.00)
        Ni2           18.00     1.00000     Ni( 1.00)
        O              6.00     1.00000     O ( 1.00)

     Starting magnetic structure 
     atomic species   magnetization
        Ni1          0.100
        Ni2         -0.100
        O            0.000

     12 Sym. Ops., with inversion, found


                                    s                        frac. trans.

      isym =  1     identity                                     

 cryst.   s( 1) = (     1          0          0      )
                  (     0          1          0      )
                  (     0          0          1      )

 cart.    s( 1) = (  1.0000000  0.0000000  0.0000000 )
                  (  0.0000000  1.0000000  0.0000000 )
                  (  0.0000000  0.0000000  1.0000000 )


      isym =  2     180 deg rotation - cart. axis [1,-1,0]       

 cryst.   s( 2) = (     0         -1          0      )
                  (    -1          0          0      )
                  (     0          0         -1      )

 cart.    s( 2) = (  0.0000000 -1.0000000  0.0000000 )
                  ( -1.0000000  0.0000000  0.0000000 )
                  (  0.0000000  0.0000000 -1.0000000 )


      isym =  3     180 deg rotation - cart. axis [-1,0,1]       

 cryst.   s( 3) = (     0          0         -1      )
                  (     0         -1          0      )
                  (    -1          0          0      )

 cart.    s( 3) = (  0.0000000  0.0000000 -1.0000000 )
                  (  0.0000000 -1.0000000  0.0000000 )
                  ( -1.0000000  0.0000000  0.0000000 )


      isym =  4     180 deg rotation - cart. axis [0,1,-1]       

 cryst.   s( 4) = (    -1          0          0      )
                  (     0          0         -1      )
                  (     0         -1          0      )

 cart.    s( 4) = ( -1.0000000  0.0000000  0.0000000 )
                  (  0.0000000  0.0000000 -1.0000000 )
                  (  0.0000000 -1.0000000  0.0000000 )


      isym =  5     120 deg rotation - cart. axis [-1,-1,-1]     

 cryst.   s( 5) = (     0          0          1      )
                  (     1          0          0      )
                  (     0          1          0      )

 cart.    s( 5) = (  0.0000000  1.0000000  0.0000000 )
                  (  0.0000000  0.0000000  1.0000000 )
                  (  1.0000000  0.0000000  0.0000000 )


      isym =  6     120 deg rotation - cart. axis [1,1,1]        

 cryst.   s( 6) = (     0          1          0      )
                  (     0          0          1      )
                  (     1          0          0      )

 cart.    s( 6) = (  0.0000000  0.0000000  1.0000000 )
                  (  1.0000000  0.0000000  0.0000000 )
                  (  0.0000000  1.0000000  0.0000000 )


      isym =  7     inversion                                    

 cryst.   s( 7) = (    -1          0          0      )
                  (     0         -1          0      )
                  (     0          0         -1      )

 cart.    s( 7) = ( -1.0000000  0.0000000  0.0000000 )
                  (  0.0000000 -1.0000000  0.0000000 )
                  (  0.0000000  0.0000000 -1.0000000 )


      isym =  8     inv. 180 deg rotation - cart. axis [1,-1,0]  

 cryst.   s( 8) = (     0          1          0      )
                  (     1          0          0      )
                  (     0          0          1      )

 cart.    s( 8) = (  0.0000000  1.0000000  0.0000000 )
                  (  1.0000000  0.0000000  0.0000000 )
                  (  0.0000000  0.0000000  1.0000000 )


      isym =  9     inv. 180 deg rotation - cart. axis [-1,0,1]  

 cryst.   s( 9) = (     0          0          1      )
                  (     0          1          0      )
                  (     1          0          0      )

 cart.    s( 9) = (  0.0000000  0.0000000  1.0000000 )
                  (  0.0000000  1.0000000  0.0000000 )
                  (  1.0000000  0.0000000  0.0000000 )


      isym = 10     inv. 180 deg rotation - cart. axis [0,1,-1]  

 cryst.   s(10) = (     1          0          0      )
                  (     0          0          1      )
                  (     0          1          0      )

 cart.    s(10) = (  1.0000000  0.0000000  0.0000000 )
                  (  0.0000000  0.0000000  1.0000000 )
                  (  0.0000000  1.0000000  0.0000000 )


      isym = 11     inv. 120 deg rotation - cart. axis [-1,-1,-1]

 cryst.   s(11) = (     0          0         -1      )
                  (    -1          0          0      )
                  (     0         -1          0      )

 cart.    s(11) = (  0.0000000 -1.0000000  0.0000000 )
                  (  0.0000000  0.0000000 -1.0000000 )
                  ( -1.0000000  0.0000000  0.0000000 )


      isym = 12     inv. 120 deg rotation - cart. axis [1,1,1]   

 cryst.   s(12) = (     0         -1          0      )
                  (     0          0         -1      )
                  (    -1          0          0      )

 cart.    s(12) = (  0.0000000  0.0000000 -1.0000000 )
                  ( -1.0000000  0.0000000  0.0000000 )
                  (  0.0000000 -1.0000000  0.0000000 )


   Cartesian axes

     site n.     atom                  positions (alat units)
         1           Ni1 tau(   1) = (   0.0000000   0.0000000   0.0000000  )
         2           Ni2 tau(   2) = (   1.0000000   1.0000000   1.0000000  )
         3           O   tau(   3) = (   0.5000000   0.5000000   0.5000000  )
         4           O   tau(   4) = (   1.5000000   1.5000000   1.5000000  )

   Crystallographic axes

     site n.     atom                  positions (cryst. coord.)
         1           Ni1 tau(   1) = (  0.0000000  0.0000000  0.0000000  )
         2           Ni2 tau(   2) = (  0.5000000  0.5000000  0.5000000  )
         3           O   tau(   3) = (  0.2500000  0.2500000  0.2500000  )
         4           O   tau(   4) = (  0.7500000  0.7500000  0.7500000  )

     number of k points=    13  Gaussian smearing, width (Ry)=  0.0200
                       cart. coord. in units 2pi/alat
        k(    1) = (   0.0000000   0.0000000   0.0000000), wk =   0.0156250
        k(    2) = (  -0.1250000  -0.1250000   0.3750000), wk =   0.0937500
        k(    3) = (   0.2500000   0.2500000  -0.7500000), wk =   0.0468750
        k(    4) = (  -0.2500000   0.2500000   0.2500000), wk =   0.0937500
        k(    5) = (   0.1250000   0.6250000  -0.8750000), wk =   0.1875000
        k(    6) = (   0.0000000   0.5000000  -0.5000000), wk =   0.0937500
        k(    7) = (   0.5000000  -0.5000000  -0.5000000), wk =   0.0468750
        k(    8) = (   0.1250000   0.1250000   0.1250000), wk =   0.0312500
        k(    9) = (   0.5000000   0.5000000  -1.0000000), wk =   0.0937500
        k(   10) = (   0.3750000   0.3750000  -0.6250000), wk =   0.0937500
        k(   11) = (   0.8750000  -0.6250000  -0.6250000), wk =   0.0937500
        k(   12) = (   0.7500000  -0.7500000  -0.2500000), wk =   0.0937500
        k(   13) = (  -0.2500000  -0.2500000  -0.2500000), wk =   0.0156250

                       cryst. coord.
        k(    1) = (   0.0000000   0.0000000   0.0000000), wk =   0.0156250
        k(    2) = (   0.0000000   0.0000000   0.2500000), wk =   0.0937500
        k(    3) = (   0.0000000   0.0000000  -0.5000000), wk =   0.0468750
        k(    4) = (   0.0000000   0.2500000   0.2500000), wk =   0.0937500
        k(    5) = (   0.0000000   0.2500000  -0.5000000), wk =   0.1875000
        k(    6) = (   0.0000000   0.2500000  -0.2500000), wk =   0.0937500
        k(    7) = (   0.0000000  -0.5000000  -0.5000000), wk =   0.0468750
        k(    8) = (   0.2500000   0.2500000   0.2500000), wk =   0.0312500
        k(    9) = (   0.2500000   0.2500000  -0.5000000), wk =   0.0937500
        k(   10) = (   0.2500000   0.2500000  -0.2500000), wk =   0.0937500
        k(   11) = (   0.2500000  -0.5000000  -0.5000000), wk =   0.0937500
        k(   12) = (   0.2500000  -0.5000000  -0.2500000), wk =   0.0937500
        k(   13) = (  -0.5000000  -0.5000000  -0.5000000), wk =   0.0156250

     Dense  grid:    64627 G-vectors     FFT dimensions: (  80,  80,  80)

     Smooth grid:    16817 G-vectors     FFT dimensions: (  50,  50,  50)

     Dynamical RAM for                 wfc:       0.94 MB

     Dynamical RAM for     wfc (w. buffer):      25.27 MB

     Dynamical RAM for             U proj.:       0.32 MB

     Dynamical RAM for  U proj. (w. buff.):       8.71 MB

     Dynamical RAM for           str. fact:       2.96 MB

     Dynamical RAM for           local pot:       0.00 MB

     Dynamical RAM for          nlocal pot:       2.00 MB

     Dynamical RAM for                qrad:       6.02 MB

     Dynamical RAM for          rho,v,vnew:      29.35 MB

     Dynamical RAM for               rhoin:       9.78 MB

     Dynamical RAM for            rho*nmix:      31.56 MB

     Dynamical RAM for           G-vectors:       3.83 MB

     Dynamical RAM for          h,s,v(r/c):       0.15 MB

     Dynamical RAM for          <psi|beta>:       0.03 MB

     Dynamical RAM for                 psi:       1.87 MB

     Dynamical RAM for                hpsi:       1.87 MB

     Dynamical RAM for                spsi:       1.87 MB

     Dynamical RAM for      wfcinit/wfcrot:       2.22 MB

     Dynamical RAM for           addusdens:     186.38 MB

     Dynamical RAM for          addusforce:     188.37 MB

     Dynamical RAM for         addusstress:     199.69 MB

     Estimated static dynamical RAM per process >     115.31 MB

     Estimated max dynamical RAM per process >     346.55 MB

     WARNING: libxc functional with ID  101 depends
      on external parameters: check the user_guide of
      QE if you need to modify them or to check their
      default values.

     WARNING: libxc functional with ID  130 depends
      on external parameters: check the user_guide of
      QE if you need to modify them or to check their
      default values.

     Check: negative core charge=   -0.000010
     Generating pointlists ...
     new r_m :   0.2063 (alat units)  1.6253 (a.u.) for type    1
     new r_m :   0.2063 (alat units)  1.6253 (a.u.) for type    2
     new r_m :   0.2063 (alat units)  1.6253 (a.u.) for type    3

     Initial potential from superposition of free atoms

     starting charge      44.0000, renormalised to      48.0000

     HUBBARD ENERGY =    0.7056  (Ry)

     STARTING HUBBARD OCCUPATIONS:

     =================== HUBBARD OCCUPATIONS ===================
     ------------------------ ATOM    1 ------------------------
     Tr[ns(  1)] (up, down, total) =   5.00000  3.00000  8.00000
     Atomic magnetic moment for atom   1 =   2.00000
     SPIN  1
     eigenvalues:
       1.000  1.000  1.000  1.000  1.000
     eigenvectors (columns):
       1.000  0.000  0.000  0.000  0.000
       0.000  1.000  0.000  0.000  0.000
       0.000  0.000  1.000  0.000  0.000
       0.000  0.000  0.000  1.000  0.000
       0.000  0.000  0.000  0.000  1.000
     occupation matrix ns (before diag.):
       1.000  0.000  0.000  0.000  0.000
       0.000  1.000  0.000  0.000  0.000
       0.000  0.000  1.000  0.000  0.000
       0.000  0.000  0.000  1.000  0.000
       0.000  0.000  0.000  0.000  1.000
     SPIN  2
     eigenvalues:
       0.600  0.600  0.600  0.600  0.600
     eigenvectors (columns):
       1.000  0.000  0.000  0.000  0.000
       0.000  1.000  0.000  0.000  0.000
       0.000  0.000  1.000  0.000  0.000
       0.000  0.000  0.000  1.000  0.000
       0.000  0.000  0.000  0.000  1.000
     occupation matrix ns (before diag.):
       0.600  0.000  0.000  0.000  0.000
       0.000  0.600  0.000  0.000  0.000
       0.000  0.000  0.600  0.000  0.000
       0.000  0.000  0.000  0.600  0.000
       0.000  0.000  0.000  0.000  0.600
     ------------------------ ATOM    2 ------------------------
     Tr[ns(  2)] (up, down, total) =   3.00000  5.00000  8.00000
     Atomic magnetic moment for atom   2 =  -2.00000
     SPIN  1
     eigenvalues:
       0.600  0.600  0.600  0.600  0.600
     eigenvectors (columns):
       1.000  0.000  0.000  0.000  0.000
       0.000  1.000  0.000  0.000  0.000
       0.000  0.000  1.000  0.000  0.000
       0.000  0.000  0.000  1.000  0.000
       0.000  0.000  0.000  0.000  1.000
     occupation matrix ns (before diag.):
       0.600  0.000  0.000  0.000  0.000
       0.000  0.600  0.000  0.000  0.000
       0.000  0.000  0.600  0.000  0.000
       0.000  0.000  0.000  0.600  0.000
       0.000  0.000  0.000  0.000  0.600
     SPIN  2
     eigenvalues:
       1.000  1.000  1.000  1.000  1.000
     eigenvectors (columns):
       1.000  0.000  0.000  0.000  0.000
       0.000  1.000  0.000  0.000  0.000
       0.000  0.000  1.000  0.000  0.000
       0.000  0.000  0.000  1.000  0.000
       0.000  0.000  0.000  0.000  1.000
     occupation matrix ns (before diag.):
       1.000  0.000  0.000  0.000  0.000
       0.000  1.000  0.000  0.000  0.000
       0.000  0.000  1.000  0.000  0.000
       0.000  0.000  0.000  1.000  0.000
       0.000  0.000  0.000  0.000  1.000

     Number of occupied Hubbard levels =   16.0000

     Atomic wfc used for Hubbard projectors are NOT orthogonalized

     Starting wfcs are   34 randomized atomic wfcs

     total cpu time spent up to now is        6.0 secs

     per-process dynamical memory:   298.1 Mb

     Self-consistent Calculation

     iteration #  1     ecut=    64.00 Ry     beta= 0.25
     Davidson diagonalization with overlap

---- Real-time Memory Report at c_bands before calling an iterative solver
           309 MiB given to the printing process from OS
           300 MiB allocation reported by mallinfo(arena+hblkhd)
         53539 MiB available memory on the node where the printing process lives
------------------
     ethr =  1.00E-02,  avg # of iterations =  3.5

     =================== HUBBARD OCCUPATIONS ===================
     ------------------------ ATOM    1 ------------------------
     Tr[ns(  1)] (up, down, total) =   3.70806  0.97583  4.68389
     Atomic magnetic moment for atom   1 =   2.73223
     SPIN  1
     eigenvalues:
       0.709  0.709  0.737  0.777  0.777
     eigenvectors (columns):
      -0.165  0.007  0.000 -0.214 -0.963
       0.433  0.679  0.577 -0.129 -0.041
       0.372 -0.714  0.577  0.100 -0.091
      -0.007 -0.165 -0.000 -0.963  0.214
       0.804 -0.035 -0.577 -0.029 -0.132
     occupation matrix ns (before diag.):
       0.775  0.005  0.005 -0.000  0.009
       0.005  0.719  0.009  0.008 -0.009
       0.005  0.009  0.719 -0.008 -0.009
      -0.000  0.008 -0.008  0.775 -0.000
       0.009 -0.009 -0.009 -0.000  0.719
     SPIN  2
     eigenvalues:
       0.096  0.096  0.252  0.252  0.280
     eigenvectors (columns):
      -0.045  0.999  0.002  0.001  0.000
      -0.002  0.001 -0.588  0.566 -0.577
       0.002  0.001 -0.196 -0.793 -0.577
      -0.999 -0.045  0.001 -0.002 -0.000
      -0.000  0.002 -0.785 -0.226  0.577
     occupation matrix ns (before diag.):
       0.096 -0.000 -0.000 -0.000 -0.000
      -0.000  0.261  0.010 -0.000 -0.010
      -0.000  0.010  0.261  0.000 -0.010
      -0.000 -0.000  0.000  0.096 -0.000
      -0.000 -0.010 -0.010 -0.000  0.261
     ------------------------ ATOM    2 ------------------------
     Tr[ns(  2)] (up, down, total) =   0.98277  3.71160  4.69437
     Atomic magnetic moment for atom   2 =  -2.72883
     SPIN  1
     eigenvalues:
       0.095  0.095  0.253  0.253  0.286
     eigenvectors (columns):
       0.018 -1.000  0.007 -0.003  0.000
      -0.006  0.003  0.613  0.539 -0.577
       0.005  0.003  0.160 -0.801 -0.577
       1.000  0.018  0.003  0.007 -0.000
      -0.000  0.006  0.773 -0.262  0.577
     occupation matrix ns (before diag.):
       0.095  0.001  0.001 -0.000  0.001
       0.001  0.264  0.011  0.001 -0.011
       0.001  0.011  0.264 -0.001 -0.011
      -0.000  0.001 -0.001  0.095 -0.000
       0.001 -0.011 -0.011 -0.000  0.264
     SPIN  2
     eigenvalues:
       0.709  0.709  0.740  0.777  0.777
     eigenvectors (columns):
      -0.164  0.007  0.000 -0.228 -0.960
       0.430  0.681  0.577 -0.129 -0.038
       0.374 -0.713  0.577  0.098 -0.092
      -0.007 -0.164 -0.000 -0.960  0.228
       0.805 -0.032 -0.577 -0.031 -0.131
     occupation matrix ns (before diag.):
       0.775  0.005  0.005 -0.000  0.009
       0.005  0.720  0.010  0.008 -0.010
       0.005  0.010  0.720 -0.008 -0.010
      -0.000  0.008 -0.008  0.775 -0.000
       0.009 -0.010 -0.010 -0.000  0.720

     Number of occupied Hubbard levels =    9.3783

     HUBBARD ENERGY =    1.0031  (Ry)

     total cpu time spent up to now is       17.9 secs

 ------ SPIN UP ------------


          k = 0.0000 0.0000 0.0000     band energies (ev):

   -68.0711 -65.9422 -29.7140 -29.6493 -29.6493 -27.7130 -27.6433 -27.6433
    -7.1045  -5.8224   5.9239   8.9298   8.9298  10.1475  10.1475  10.1475
    17.0918  20.7541  20.8849  21.1153  21.1215  23.2620  23.4088  23.4127
    25.9911  25.9964  28.8486  28.8504  28.9791

     occupation numbers 
     1.0000   1.0000   1.0000   1.0000   1.0000   1.0000   1.0000   1.0000
     1.0000   1.0000   1.0000   1.0000   1.0000   1.0000   1.0000   1.0000
     1.0000   1.0000   1.0000   1.0000   1.0000   1.0000   1.0000   1.0000
     0.0276   0.0259   0.0000   0.0000   0.0000

          k =-0.1250-0.1250 0.3750     band energies (ev):

   -68.0674 -65.9386 -29.7036 -29.6999 -29.6610 -27.7048 -27.7007 -27.6566
    -6.5769  -5.8615   6.8307   8.0564   8.0894   8.9145   9.5326   9.6241
    19.2410  19.6545  21.4276  21.5886  22.5972  23.9878  24.0585  24.2753
    26.3122  26.5719  26.8292  28.7888  29.0891

     occupation numbers 
     1.0000   1.0000   1.0000   1.0000   1.0000   1.0000   1.0000   1.0000
     1.0000   1.0000   1.0000   1.0000   1.0000   1.0000   1.0000   1.0000
     1.0000   1.0000   1.0000   1.0000   1.0000   1.0000   1.0000   1.0000
     0.0002   0.0000   0.0000   0.0000   0.0000

          k = 0.2500 0.2500-0.7500     band energies (ev):

   -68.0650 -65.9346 -29.7511 -29.6911 -29.6724 -27.7617 -27.6922 -27.6697
    -6.0117  -5.8718   6.7933   6.9654   8.2629   8.4800   8.9217   9.1411
    18.6807  20.7022  21.9254  22.8028  23.9962  24.1175  24.9183  26.0785
    26.5057  26.8838  27.6296  28.0957  28.9698

     occupation numbers 
     1.0000   1.0000   1.0000   1.0000   1.0000   1.0000   1.0000   1.0000
     1.0000   1.0000   1.0000   1.0000   1.0000   1.0000   1.0000   1.0000
     1.0000   1.0000   1.0000   1.0000   1.0000   1.0000   0.9999   0.0089
     0.0000   0.0000   0.0000   0.0000   0.0000

          k =-0.2500 0.2500 0.2500     band energies (ev):

   -68.0676 -65.9384 -29.7033 -29.7005 -29.6610 -27.7051 -27.6999 -27.6565
    -6.5068  -5.9420   6.8784   7.8025   8.3619   9.0137   9.5125   9.5173
    19.2088  19.4655  21.0993  22.2840  22.4132  23.6269  24.2876  24.4499
    26.1443  26.9634  26.9912  28.1752  28.7546

     occupation numbers 
     1.0000   1.0000   1.0000   1.0000   1.0000   1.0000   1.0000   1.0000
     1.0000   1.0000   1.0000   1.0000   1.0000   1.0000   1.0000   1.0000
     1.0000   1.0000   1.0000   1.0000   1.0000   1.0000   1.0000   1.0000
     0.0033   0.0000   0.0000   0.0000   0.0000

          k = 0.1250 0.6250-0.8750     band energies (ev):

   -68.0641 -65.9348 -29.7321 -29.6942 -29.6908 -27.7380 -27.6940 -27.6898
    -5.9912  -5.8944   6.8426   7.2559   8.0464   8.5536   8.7636   8.9803
    19.6630  20.1246  21.6014  22.6313  24.1029  24.5465  25.0771  25.3516
    25.9219  27.5084  27.8325  28.3987  29.5377

     occupation numbers 
     1.0000   1.0000   1.0000   1.0000   1.0000   1.0000   1.0000   1.0000
     1.0000   1.0000   1.0000   1.0000   1.0000   1.0000   1.0000   1.0000
     1.0000   1.0000   1.0000   1.0000   1.0000   1.0000   0.9977   0.9202
     0.0597   0.0000   0.0000   0.0000   0.0000

          k = 0.0000 0.5000-0.5000     band energies (ev):

   -68.0633 -65.9351 -29.7319 -29.6940 -29.6909 -27.7387 -27.6948 -27.6893
    -6.0030  -5.8845   6.9343   7.7778   7.7862   8.3508   8.4659   9.0090
    20.2073  20.6895  21.2626  22.1851  23.8978  24.6980  24.7586  24.8692
    25.8069  27.8754  28.5068  28.7092  29.5624

     occupation numbers 
     1.0000   1.0000   1.0000   1.0000   1.0000   1.0000   1.0000   1.0000
     1.0000   1.0000   1.0000   1.0000   1.0000   1.0000   1.0000   1.0000
     1.0000   1.0000   1.0000   1.0000   1.0000   1.0000   1.0000   1.0000
     0.1687   0.0000   0.0000   0.0000   0.0000

          k = 0.5000-0.5000-0.5000     band energies (ev):

   -68.0641 -65.9356 -29.7516 -29.6917 -29.6724 -27.7598 -27.6896 -27.6692
    -6.0533  -5.8224   5.9245   6.9976   8.9326   8.9377   9.1346   9.1347
    17.2234  20.8863  22.1156  22.9041  24.0033  24.8173  24.8528  25.3345
    25.7094  27.3605  28.3894  29.4324  29.4942

     occupation numbers 
     1.0000   1.0000   1.0000   1.0000   1.0000   1.0000   1.0000   1.0000
     1.0000   1.0000   1.0000   1.0000   1.0000   1.0000   1.0000   1.0000
     1.0000   1.0000   1.0000   1.0000   1.0000   1.0000   1.0000   0.9326
     0.3253   0.0000   0.0000   0.0000   0.0000

          k = 0.1250 0.1250 0.1250     band energies (ev):

   -68.0710 -65.9416 -29.7129 -29.6493 -29.6492 -27.7149 -27.6434 -27.6434
    -6.9365  -6.0346   6.4536   9.0803   9.0804   9.3663   9.9581   9.9581
    17.8896  20.1744  20.8321  21.3454  21.3468  22.8812  23.6320  23.6343
    25.4585  25.4636  27.9069  27.9101  29.8648

     occupation numbers 
     1.0000   1.0000   1.0000   1.0000   1.0000   1.0000   1.0000   1.0000
     1.0000   1.0000   1.0000   1.0000   1.0000   1.0000   1.0000   1.0000
     1.0000   1.0000   1.0000   1.0000   1.0000   1.0000   1.0000   1.0000
     0.8027   0.7952   0.0000   0.0000   0.0000

          k = 0.5000 0.5000-1.0000     band energies (ev):

   -68.0675 -65.9384 -29.7035 -29.6998 -29.6611 -27.7045 -27.7016 -27.6567
    -6.4491  -6.0013   6.9298   7.6922   8.4556   9.0052   9.5234   9.5263
    18.7918  19.8528  20.9025  21.4129  22.7494  24.0677  24.4197  24.8426
    26.1326  26.2310  27.3127  28.6145  28.9355

     occupation numbers 
     1.0000   1.0000   1.0000   1.0000   1.0000   1.0000   1.0000   1.0000
     1.0000   1.0000   1.0000   1.0000   1.0000   1.0000   1.0000   1.0000
     1.0000   1.0000   1.0000   1.0000   1.0000   1.0000   1.0000   1.0000
     0.0040   0.0008   0.0000   0.0000   0.0000

          k = 0.3750 0.3750-0.6250     band energies (ev):

   -68.0652 -65.9339 -29.7513 -29.6916 -29.6724 -27.7607 -27.6909 -27.6695
    -6.0354  -5.8444   6.2233   7.0705   8.6593   8.7872   8.9271   9.1374
    17.8209  20.9764  21.9963  22.9708  24.0592  24.2289  24.8671  25.5639
    25.9736  27.4521  28.2306  28.3861  29.1066

     occupation numbers 
     1.0000   1.0000   1.0000   1.0000   1.0000   1.0000   1.0000   1.0000
     1.0000   1.0000   1.0000   1.0000   1.0000   1.0000   1.0000   1.0000
     1.0000   1.0000   1.0000   1.0000   1.0000   1.0000   1.0000   0.6192
     0.0339   0.0000   0.0000   0.0000   0.0000

          k = 0.8750-0.6250-0.6250     band energies (ev):

   -68.0674 -65.9384 -29.7031 -29.7003 -29.6611 -27.7047 -27.7007 -27.6565
    -6.2780  -6.1826   7.1567   7.2837   9.0109   9.1895   9.1913   9.3297
    18.6277  20.1537  20.8729  21.1358  22.5471  24.2975  24.5963  24.8486
    25.7804  26.6399  27.4928  28.0371  29.4271

     occupation numbers 
     1.0000   1.0000   1.0000   1.0000   1.0000   1.0000   1.0000   1.0000
     1.0000   1.0000   1.0000   1.0000   1.0000   1.0000   1.0000   1.0000
     1.0000   1.0000   1.0000   1.0000   1.0000   1.0000   1.0000   1.0000
     0.2056   0.0000   0.0000   0.0000   0.0000

          k = 0.7500-0.7500-0.2500     band energies (ev):

   -68.0642 -65.9351 -29.7323 -29.6942 -29.6906 -27.7374 -27.6933 -27.6901
    -5.9759  -5.9078   6.8640   6.8914   8.3389   8.3959   8.9828   9.0924
    19.3957  19.5429  22.2873  22.3646  24.2072  25.0462  25.3251  25.5882
    26.4732  26.6862  27.2566  28.1626  29.2762

     occupation numbers 
     1.0000   1.0000   1.0000   1.0000   1.0000   1.0000   1.0000   1.0000
     1.0000   1.0000   1.0000   1.0000   1.0000   1.0000   1.0000   1.0000
     1.0000   1.0000   1.0000   1.0000   1.0000   0.9986   0.9387   0.5702
     0.0000   0.0000   0.0000   0.0000   0.0000

          k =-0.2500-0.2500-0.2500     band energies (ev):

   -68.0703 -65.9414 -29.7118 -29.6494 -29.6493 -27.7170 -27.6435 -27.6435
    -6.5096  -6.5043   7.7037   7.9066   9.3681   9.3681   9.6318   9.6319
    19.2465  19.4807  20.3014  21.6148  21.6167  22.5002  23.8918  23.8934
    24.8470  24.8861  27.3637  27.3649  31.4715

     occupation numbers 
     1.0000   1.0000   1.0000   1.0000   1.0000   1.0000   1.0000   1.0000
     1.0000   1.0000   1.0000   1.0000   1.0000   1.0000   1.0000   1.0000
     1.0000   1.0000   1.0000   1.0000   1.0000   1.0000   1.0000   1.0000
     1.0000   0.9999   0.0000   0.0000   0.0000

 ------ SPIN DOWN ----------


          k = 0.0000 0.0000 0.0000     band energies (ev):

   -68.0710 -65.9424 -29.7140 -29.6493 -29.6493 -27.7130 -27.6433 -27.6432
    -7.1046  -5.8225   5.9240   8.9298   8.9299  10.1475  10.1475  10.1494
    17.0918  20.7547  20.8848  21.1125  21.1231  23.2608  23.4132  23.4138
    25.9915  25.9985  28.8500  28.8508  28.9782

     occupation numbers 
     1.0000   1.0000   1.0000   1.0000   1.0000   1.0000   1.0000   1.0000
     1.0000   1.0000   1.0000   1.0000   1.0000   1.0000   1.0000   1.0000
     1.0000   1.0000   1.0000   1.0000   1.0000   1.0000   1.0000   1.0000
     0.0275   0.0253   0.0000   0.0000   0.0000

          k =-0.1250-0.1250 0.3750     band energies (ev):

   -68.0676 -65.9384 -29.7036 -29.7000 -29.6610 -27.7048 -27.7008 -27.6566
    -6.5769  -5.8615   6.8307   8.0564   8.0894   8.9145   9.5326   9.6241
    19.2414  19.6573  21.4280  21.6032  22.5997  24.0565  24.0629  24.2744
    26.3140  26.5739  26.8308  28.7909  29.0862

     occupation numbers 
     1.0000   1.0000   1.0000   1.0000   1.0000   1.0000   1.0000   1.0000
     1.0000   1.0000   1.0000   1.0000   1.0000   1.0000   1.0000   1.0000
     1.0000   1.0000   1.0000   1.0000   1.0000   1.0000   1.0000   1.0000
     0.0002   0.0000   0.0000   0.0000   0.0000

          k = 0.2500 0.2500-0.7500     band energies (ev):

   -68.0649 -65.9346 -29.7511 -29.6912 -29.6724 -27.7617 -27.6921 -27.6697
    -6.0116  -5.8719   6.7933   6.9655   8.2630   8.4802   8.9217   9.1410
    18.6840  20.6994  21.9255  22.8027  23.9972  24.1174  24.9179  26.0788
    26.5048  26.8835  27.6240  28.0632  28.8822

     occupation numbers 
     1.0000   1.0000   1.0000   1.0000   1.0000   1.0000   1.0000   1.0000
     1.0000   1.0000   1.0000   1.0000   1.0000   1.0000   1.0000   1.0000
     1.0000   1.0000   1.0000   1.0000   1.0000   1.0000   0.9999   0.0088
     0.0000   0.0000   0.0000   0.0000   0.0000

          k =-0.2500 0.2500 0.2500     band energies (ev):

   -68.0675 -65.9384 -29.7033 -29.7005 -29.6609 -27.7051 -27.6999 -27.6564
    -6.5069  -5.9420   6.8783   7.8025   8.3619   9.0137   9.5124   9.5173
    19.2083  19.4649  21.0958  22.2834  22.4131  23.6284  24.2861  24.4489
    26.1449  26.9645  26.9885  28.1731  28.7794

     occupation numbers 
     1.0000   1.0000   1.0000   1.0000   1.0000   1.0000   1.0000   1.0000
     1.0000   1.0000   1.0000   1.0000   1.0000   1.0000   1.0000   1.0000
     1.0000   1.0000   1.0000   1.0000   1.0000   1.0000   1.0000   1.0000
     0.0033   0.0000   0.0000   0.0000   0.0000

          k = 0.1250 0.6250-0.8750     band energies (ev):

   -68.0641 -65.9346 -29.7320 -29.6941 -29.6908 -27.7380 -27.6940 -27.6898
    -5.9911  -5.8944   6.8425   7.2558   8.0464   8.5534   8.7631   8.9802
    19.6614  20.1238  21.6016  22.6330  24.0996  24.5453  25.0758  25.3585
    25.9205  27.5136  27.8503  28.3849  29.5042

     occupation numbers 
     1.0000   1.0000   1.0000   1.0000   1.0000   1.0000   1.0000   1.0000
     1.0000   1.0000   1.0000   1.0000   1.0000   1.0000   1.0000   1.0000
     1.0000   1.0000   1.0000   1.0000   1.0000   1.0000   0.9977   0.9148
     0.0606   0.0000   0.0000   0.0000   0.0000

          k = 0.0000 0.5000-0.5000     band energies (ev):

   -68.0644 -65.9345 -29.7319 -29.6940 -29.6908 -27.7384 -27.6948 -27.6893
    -6.0031  -5.8846   6.9342   7.7778   7.7862   8.3505   8.4659   9.0090
    20.2063  20.6923  21.2615  22.1841  23.8989  24.6984  24.8076  24.8684
    25.8079  27.8741  28.5213  28.7258  29.5611

     occupation numbers 
     1.0000   1.0000   1.0000   1.0000   1.0000   1.0000   1.0000   1.0000
     1.0000   1.0000   1.0000   1.0000   1.0000   1.0000   1.0000   1.0000
     1.0000   1.0000   1.0000   1.0000   1.0000   1.0000   1.0000   1.0000
     0.1673   0.0000   0.0000   0.0000   0.0000

          k = 0.5000-0.5000-0.5000     band energies (ev):

   -68.0650 -65.9351 -29.7517 -29.6917 -29.6723 -27.7598 -27.6896 -27.6692
    -6.0535  -5.8224   5.9246   6.9975   8.9326   8.9358   9.1346   9.1348
    17.2245  20.8861  22.1168  22.9023  24.0031  24.8183  24.8547  25.3344
    25.7128  27.3578  28.3876  29.4265  29.4784

     occupation numbers 
     1.0000   1.0000   1.0000   1.0000   1.0000   1.0000   1.0000   1.0000
     1.0000   1.0000   1.0000   1.0000   1.0000   1.0000   1.0000   1.0000
     1.0000   1.0000   1.0000   1.0000   1.0000   1.0000   1.0000   0.9327
     0.3190   0.0000   0.0000   0.0000   0.0000

          k = 0.1250 0.1250 0.1250     band energies (ev):

   -68.0709 -65.9420 -29.7129 -29.6493 -29.6493 -27.7149 -27.6434 -27.6433
    -6.9365  -6.0347   6.4536   9.0803   9.0804   9.3663   9.9581   9.9581
    17.8896  20.1772  20.8348  21.3447  21.3471  22.8895  23.6338  23.6350
    25.4616  25.4663  27.9066  27.9089  29.8701

     occupation numbers 
     1.0000   1.0000   1.0000   1.0000   1.0000   1.0000   1.0000   1.0000
     1.0000   1.0000   1.0000   1.0000   1.0000   1.0000   1.0000   1.0000
     1.0000   1.0000   1.0000   1.0000   1.0000   1.0000   1.0000   1.0000
     0.7981   0.7912   0.0000   0.0000   0.0000

          k = 0.5000 0.5000-1.0000     band energies (ev):

   -68.0675 -65.9384 -29.7035 -29.6998 -29.6611 -27.7045 -27.7015 -27.6567
    -6.4492  -6.0011   6.9298   7.6923   8.4555   9.0052   9.5234   9.5263
    18.7921  19.8529  20.9028  21.4127  22.7533  24.0689  24.4191  24.8408
    26.1335  26.2329  27.3116  28.6146  28.9366

     occupation numbers 
     1.0000   1.0000   1.0000   1.0000   1.0000   1.0000   1.0000   1.0000
     1.0000   1.0000   1.0000   1.0000   1.0000   1.0000   1.0000   1.0000
     1.0000   1.0000   1.0000   1.0000   1.0000   1.0000   1.0000   1.0000
     0.0039   0.0008   0.0000   0.0000   0.0000

          k = 0.3750 0.3750-0.6250     band energies (ev):

   -68.0649 -65.9343 -29.7514 -29.6915 -29.6725 -27.7608 -27.6909 -27.6695
    -6.0354  -5.8444   6.2234   7.0705   8.6594   8.7873   8.9272   9.1374
    17.8209  20.9762  21.9964  22.9723  24.0589  24.2297  24.8664  25.5638
    25.9751  27.4508  28.2224  28.3868  29.1016

     occupation numbers 
     1.0000   1.0000   1.0000   1.0000   1.0000   1.0000   1.0000   1.0000
     1.0000   1.0000   1.0000   1.0000   1.0000   1.0000   1.0000   1.0000
     1.0000   1.0000   1.0000   1.0000   1.0000   1.0000   1.0000   0.6193
     0.0334   0.0000   0.0000   0.0000   0.0000

          k = 0.8750-0.6250-0.6250     band energies (ev):

   -68.0674 -65.9385 -29.7031 -29.7003 -29.6611 -27.7047 -27.7007 -27.6565
    -6.2781  -6.1828   7.1567   7.2837   9.0110   9.1895   9.1913   9.3296
    18.6271  20.1526  20.8699  21.1350  22.5461  24.2975  24.5957  24.8528
    25.7811  26.6413  27.4892  28.0369  29.4270

     occupation numbers 
     1.0000   1.0000   1.0000   1.0000   1.0000   1.0000   1.0000   1.0000
     1.0000   1.0000   1.0000   1.0000   1.0000   1.0000   1.0000   1.0000
     1.0000   1.0000   1.0000   1.0000   1.0000   1.0000   1.0000   1.0000
     0.2045   0.0000   0.0000   0.0000   0.0000

          k = 0.7500-0.7500-0.2500     band energies (ev):

   -68.0644 -65.9345 -29.7323 -29.6942 -29.6906 -27.7374 -27.6933 -27.6901
    -5.9759  -5.9079   6.8640   6.8913   8.3390   8.3947   8.9825   9.0931
    19.3969  19.5344  22.2798  22.3700  24.2032  25.0520  25.3196  25.5873
    26.4759  26.6837  27.2625  28.1659  29.2278

     occupation numbers 
     1.0000   1.0000   1.0000   1.0000   1.0000   1.0000   1.0000   1.0000
     1.0000   1.0000   1.0000   1.0000   1.0000   1.0000   1.0000   1.0000
     1.0000   1.0000   1.0000   1.0000   1.0000   0.9985   0.9421   0.5721
     0.0000   0.0000   0.0000   0.0000   0.0000

          k =-0.2500-0.2500-0.2500     band energies (ev):

   -68.0711 -65.9412 -29.7118 -29.6494 -29.6494 -27.7170 -27.6435 -27.6435
    -6.5097  -6.5044   7.7037   7.9066   9.3681   9.3681   9.6318   9.6319
    19.2465  19.4807  20.3014  21.6144  21.6170  22.5082  23.8929  23.8935
    24.8461  24.8927  27.3639  27.3665  31.4692

     occupation numbers 
     1.0000   1.0000   1.0000   1.0000   1.0000   1.0000   1.0000   1.0000
     1.0000   1.0000   1.0000   1.0000   1.0000   1.0000   1.0000   1.0000
     1.0000   1.0000   1.0000   1.0000   1.0000   1.0000   1.0000   1.0000
     1.0000   0.9999   0.0000   0.0000   0.0000

     the Fermi energy is    25.6223 ev

!    total energy              =    -740.18970457 Ry
     Harris-Foulkes estimate   =    -759.63120171 Ry
     estimated scf accuracy    <      50.31878145 Ry
     smearing contrib. (-TS)   =      -0.00677637 Ry
     internal energy E=F+TS    =    -740.18292820 Ry

     The total energy is F=E-TS. E is the sum of the following terms:
     one-electron contribution =    -282.04483419 Ry
     hartree contribution      =     241.47144862 Ry
     xc contribution           =     -85.92396813 Ry
     ewald contribution        =    -478.66310909 Ry
     Hubbard energy            =       1.00311211 Ry
     scf correction            =    -136.02557753 Ry
 
     Band energy sum           =     -13.01240800 Ry

     total magnetization       =     0.00 Bohr mag/cell
     absolute magnetization    =     5.93 Bohr mag/cell

     iteration #  2     ecut=    64.00 Ry     beta= 0.25
     Davidson diagonalization with overlap

---- Real-time Memory Report at c_bands before calling an iterative solver
           398 MiB given to the printing process from OS
           348 MiB allocation reported by mallinfo(arena+hblkhd)
         53493 MiB available memory on the node where the printing process lives
------------------
     ethr =  1.00E-02,  avg # of iterations =  4.3

     =================== HUBBARD OCCUPATIONS ===================
     ------------------------ ATOM    1 ------------------------
     Tr[ns(  1)] (up, down, total) =   4.98347  4.38152  9.36499
     Atomic magnetic moment for atom   1 =   0.60194
     SPIN  1
     eigenvalues:
       0.993  0.993  0.999  0.999  0.999
     eigenvectors (columns):
       0.094 -0.995 -0.025 -0.008  0.000
       0.020 -0.009  0.591 -0.563 -0.577
      -0.018 -0.013  0.192  0.793 -0.577
       0.995  0.094 -0.008  0.025 -0.000
       0.002 -0.022  0.783  0.231  0.577
     occupation matrix ns (before diag.):
       0.993 -0.000 -0.000 -0.000 -0.000
      -0.000  0.999  0.000 -0.000 -0.000
      -0.000  0.000  0.999  0.000 -0.000
      -0.000 -0.000  0.000  0.993 -0.000
      -0.000 -0.000 -0.000 -0.000  0.999
     SPIN  2
     eigenvalues:
       0.706  0.706  0.990  0.990  0.990
     eigenvectors (columns):
       0.117 -0.993  0.000  0.004  0.001
      -0.003  0.001 -0.577  0.584 -0.570
       0.003  0.002 -0.577  0.202  0.791
       0.993  0.117 -0.000  0.001 -0.004
      -0.000  0.003  0.577  0.786  0.221
     occupation matrix ns (before diag.):
       0.706  0.000  0.000 -0.000  0.001
       0.000  0.990 -0.000  0.001  0.000
       0.000 -0.000  0.990 -0.001  0.000
      -0.000  0.001 -0.001  0.706 -0.000
       0.001  0.000  0.000 -0.000  0.990
     ------------------------ ATOM    2 ------------------------
     Tr[ns(  2)] (up, down, total) =   4.36436  4.98299  9.34735
     Atomic magnetic moment for atom   2 =  -0.61864
     SPIN  1
     eigenvalues:
       0.697  0.697  0.990  0.990  0.990
     eigenvectors (columns):
      -0.161  0.987 -0.008  0.003 -0.000
       0.006 -0.002 -0.625 -0.525 -0.577
      -0.005 -0.004 -0.142  0.804 -0.577
      -0.987 -0.161 -0.003 -0.008 -0.000
       0.001 -0.007 -0.767  0.279  0.577
     occupation matrix ns (before diag.):
       0.697  0.001  0.001 -0.000  0.002
       0.001  0.990  0.000  0.002 -0.000
       0.001  0.000  0.990 -0.002 -0.000
      -0.000  0.002 -0.002  0.697 -0.000
       0.002 -0.000 -0.000 -0.000  0.990
     SPIN  2
     eigenvalues:
       0.992  0.992  0.999  0.999  0.999
     eigenvectors (columns):
       0.185 -0.982  0.025 -0.008  0.000
       0.020 -0.007 -0.607 -0.546 -0.577
      -0.016 -0.014 -0.169  0.799 -0.577
       0.982  0.185  0.008  0.025 -0.000
       0.004 -0.021 -0.776  0.253  0.577
     occupation matrix ns (before diag.):
       0.992 -0.000 -0.000 -0.000 -0.000
      -0.000  0.999  0.000 -0.000 -0.000
      -0.000  0.000  0.999  0.000 -0.000
      -0.000 -0.000  0.000  0.992 -0.000
      -0.000 -0.000 -0.000 -0.000  0.999

     Number of occupied Hubbard levels =   18.7123

     HUBBARD ENERGY =    1.1041  (Ry)

     total cpu time spent up to now is       30.7 secs

 ------ SPIN UP ------------


          k = 0.0000 0.0000 0.0000     band energies (ev):

   -94.1726 -91.7436 -54.4042 -54.3947 -54.3946 -52.0413 -52.0282 -52.0282
    -3.1291  -1.0831   5.4261   5.7304   5.7305   6.7475   6.7476   8.9475
    12.1225  12.1227  12.7122  13.0236  13.0236  15.1753  15.1753  15.1905
    17.0604  17.0607  17.1117  20.2482  26.8952

     occupation numbers 
     1.0000   1.0000   1.0000   1.0000   1.0000   1.0000   1.0000   1.0000
     1.0000   1.0000   1.0000   1.0000   1.0000   1.0000   1.0000   1.0000
     1.0000   1.0000   1.0000   1.0000   1.0000   0.4396   0.4396   0.4087
     0.0000   0.0000   0.0000   0.0000   0.0000

          k =-0.1250-0.1250 0.3750     band energies (ev):

   -94.1718 -91.7428 -54.4042 -54.4031 -54.3974 -52.0402 -52.0388 -52.0312
    -2.3404  -1.0292   5.6752   5.9075   6.1650   6.5234   6.8007   9.6058
    11.0155  11.6508  12.3971  12.5713  12.6347  13.4657  14.0390  15.1505
    15.8790  16.3499  20.9461  23.0634  25.1667

     occupation numbers 
     1.0000   1.0000   1.0000   1.0000   1.0000   1.0000   1.0000   1.0000
     1.0000   1.0000   1.0000   1.0000   1.0000   1.0000   1.0000   1.0000
     1.0000   1.0000   1.0000   1.0000   1.0000   1.0000   1.0000   0.4907
     0.0001   0.0000   0.0000   0.0000   0.0000

          k = 0.2500 0.2500-0.7500     band energies (ev):

   -94.1712 -91.7416 -54.4134 -54.4018 -54.3997 -52.0493 -52.0391 -52.0339
    -1.4291  -0.8568   5.7805   5.9532   6.0007   6.8780   7.0399   9.0349
    10.5132  10.8245  11.9382  12.6232  13.0481  13.2870  13.4462  14.7042
    15.4806  15.9129  22.5726  22.8029  25.1000

     occupation numbers 
     1.0000   1.0000   1.0000   1.0000   1.0000   1.0000   1.0000   1.0000
     1.0000   1.0000   1.0000   1.0000   1.0000   1.0000   1.0000   1.0000
     1.0000   1.0000   1.0000   1.0000   1.0000   1.0000   1.0000   0.9892
     0.0411   0.0000   0.0000   0.0000   0.0000

          k =-0.2500 0.2500 0.2500     band energies (ev):

   -94.1718 -91.7428 -54.4043 -54.4031 -54.3974 -52.0402 -52.0388 -52.0312
    -2.2506  -1.1534   5.8649   5.9144   6.0292   6.5289   6.7999   9.6491
    10.8162  11.6051  12.3678  12.5524  12.8250  13.0101  14.4623  15.1798
    16.3786  16.3893  20.3615  22.7357  25.1658

     occupation numbers 
     1.0000   1.0000   1.0000   1.0000   1.0000   1.0000   1.0000   1.0000
     1.0000   1.0000   1.0000   1.0000   1.0000   1.0000   1.0000   1.0000
     1.0000   1.0000   1.0000   1.0000   1.0000   1.0000   0.9998   0.4303
     0.0000   0.0000   0.0000   0.0000   0.0000

          k = 0.1250 0.6250-0.8750     band energies (ev):

   -94.1702 -91.7418 -54.4101 -54.4033 -54.4019 -52.0454 -52.0390 -52.0376
    -1.3162  -0.9987   5.8603   6.1132   6.3387   6.4838   6.7226   9.7002
    10.1615  11.1358  11.8397  12.4177  12.9700  13.0905  13.5808  14.0458
    15.3434  16.3234  23.0516  23.2741  25.3275

     occupation numbers 
     1.0000   1.0000   1.0000   1.0000   1.0000   1.0000   1.0000   1.0000
     1.0000   1.0000   1.0000   1.0000   1.0000   1.0000   1.0000   1.0000
     1.0000   1.0000   1.0000   1.0000   1.0000   1.0000   1.0000   1.0000
     0.1525   0.0000   0.0000   0.0000   0.0000

          k = 0.0000 0.5000-0.5000     band energies (ev):

   -94.1699 -91.7418 -54.4101 -54.4033 -54.4018 -52.0454 -52.0390 -52.0375
    -1.3442  -0.9854   5.8071   6.1523   6.3586   6.5144   6.7551  10.0732
    10.3532  10.7122  12.1387  12.2702  12.8415  13.0968  13.1144  13.9168
    14.8851  16.9465  22.9719  23.9257  25.8853

     occupation numbers 
     1.0000   1.0000   1.0000   1.0000   1.0000   1.0000   1.0000   1.0000
     1.0000   1.0000   1.0000   1.0000   1.0000   1.0000   1.0000   1.0000
     1.0000   1.0000   1.0000   1.0000   1.0000   1.0000   1.0000   1.0000
     0.9125   0.0000   0.0000   0.0000   0.0000

          k = 0.5000-0.5000-0.5000     band energies (ev):

   -94.1706 -91.7415 -54.4135 -54.4019 -54.3994 -52.0492 -52.0387 -52.0335
    -1.1986  -1.0815   5.5930   5.9585   6.2080   6.8164   7.0381   9.1434
     9.3037  11.9176  12.4539  13.0366  13.1439  13.1514  13.1974  13.3746
    17.0811  17.1243  20.2559  20.3179  26.8950

     occupation numbers 
     1.0000   1.0000   1.0000   1.0000   1.0000   1.0000   1.0000   1.0000
     1.0000   1.0000   1.0000   1.0000   1.0000   1.0000   1.0000   1.0000
     1.0000   1.0000   1.0000   1.0000   1.0000   1.0000   1.0000   1.0000
     0.0000   0.0000   0.0000   0.0000   0.0000

          k = 0.1250 0.1250 0.1250     band energies (ev):

   -94.1726 -91.7435 -54.4043 -54.3949 -54.3949 -52.0415 -52.0284 -52.0283
    -2.8917  -1.4719   5.6515   5.7389   5.7390   6.7518   6.7518   9.3601
    12.0527  12.0528  12.4753  12.9866  12.9869  13.7324  15.4261  15.4262
    16.8828  16.8830  18.7292  20.5230  26.5929

     occupation numbers 
     1.0000   1.0000   1.0000   1.0000   1.0000   1.0000   1.0000   1.0000
     1.0000   1.0000   1.0000   1.0000   1.0000   1.0000   1.0000   1.0000
     1.0000   1.0000   1.0000   1.0000   1.0000   1.0000   0.0727   0.0727
     0.0000   0.0000   0.0000   0.0000   0.0000

          k = 0.5000 0.5000-1.0000     band energies (ev):

   -94.1718 -91.7427 -54.4043 -54.4031 -54.3973 -52.0403 -52.0388 -52.0312
    -2.0926  -1.3301   5.5716   5.9138   6.2213   6.4864   6.8027   9.7684
    11.1932  11.6073  12.3151  12.6987  12.7867  13.6196  14.5376  14.5847
    14.7334  16.9060  21.9333  22.9672  25.8564

     occupation numbers 
     1.0000   1.0000   1.0000   1.0000   1.0000   1.0000   1.0000   1.0000
     1.0000   1.0000   1.0000   1.0000   1.0000   1.0000   1.0000   1.0000
     1.0000   1.0000   1.0000   1.0000   1.0000   1.0000   0.9992   0.9982
     0.9840   0.0000   0.0000   0.0000   0.0000

          k = 0.3750 0.3750-0.6250     band energies (ev):

   -94.1711 -91.7413 -54.4135 -54.4019 -54.3998 -52.0493 -52.0390 -52.0339
    -1.3479  -0.9353   5.6980   5.9555   6.0974   6.8253   7.0389   9.0405
     9.8252  11.5948  12.1279  12.6364  13.0563  13.1852  13.5034  13.9405
    16.2039  16.6115  21.2176  21.5763  26.0121

     occupation numbers 
     1.0000   1.0000   1.0000   1.0000   1.0000   1.0000   1.0000   1.0000
     1.0000   1.0000   1.0000   1.0000   1.0000   1.0000   1.0000   1.0000
     1.0000   1.0000   1.0000   1.0000   1.0000   1.0000   1.0000   1.0000
     0.0000   0.0000   0.0000   0.0000   0.0000

          k = 0.8750-0.6250-0.6250     band energies (ev):

   -94.1717 -91.7427 -54.4043 -54.4031 -54.3974 -52.0402 -52.0388 -52.0312
    -1.8692  -1.5867   5.6920   5.9206   6.1517   6.4863   6.8018   9.8959
    10.8211  11.5826  12.2939  12.7392  12.7476  13.5708  14.4604  14.5829
    15.5022  16.9376  21.5061  22.3731  25.9927

     occupation numbers 
     1.0000   1.0000   1.0000   1.0000   1.0000   1.0000   1.0000   1.0000
     1.0000   1.0000   1.0000   1.0000   1.0000   1.0000   1.0000   1.0000
     1.0000   1.0000   1.0000   1.0000   1.0000   1.0000   0.9998   0.9983
     0.0321   0.0000   0.0000   0.0000   0.0000

          k = 0.7500-0.7500-0.2500     band energies (ev):

   -94.1709 -91.7419 -54.4101 -54.4033 -54.4019 -52.0453 -52.0390 -52.0376
    -1.2850  -1.0153   5.9841   6.0094   6.3654   6.3931   6.6927   9.4963
     9.9453  11.6249  11.8519  12.1655  12.9159  13.0445  14.0561  14.4790
    15.6074  15.8283  22.5584  22.7975  24.9759

     occupation numbers 
     1.0000   1.0000   1.0000   1.0000   1.0000   1.0000   1.0000   1.0000
     1.0000   1.0000   1.0000   1.0000   1.0000   1.0000   1.0000   1.0000
     1.0000   1.0000   1.0000   1.0000   1.0000   1.0000   1.0000   0.9997
     0.0082   0.0002   0.0000   0.0000   0.0000

          k =-0.2500-0.2500-0.2500     band energies (ev):

   -94.1726 -91.7435 -54.4042 -54.3950 -54.3950 -52.0416 -52.0284 -52.0284
    -2.2819  -2.2205   5.7469   5.7470   5.8459   6.7559   6.7559  10.1843
    11.5564  11.9841  11.9847  12.9527  12.9529  13.0836  15.7424  15.7424
    16.6244  16.6245  20.3188  20.3923  26.7885

     occupation numbers 
     1.0000   1.0000   1.0000   1.0000   1.0000   1.0000   1.0000   1.0000
     1.0000   1.0000   1.0000   1.0000   1.0000   1.0000   1.0000   1.0000
     1.0000   1.0000   1.0000   1.0000   1.0000   1.0000   0.0010   0.0010
     0.0000   0.0000   0.0000   0.0000   0.0000

 ------ SPIN DOWN ----------


          k = 0.0000 0.0000 0.0000     band energies (ev):

   -94.1269 -91.7887 -54.3592 -54.3505 -54.3504 -52.0864 -52.0716 -52.0715
    -3.1289  -1.0830   5.4336   5.7648   5.7650   6.7888   6.7889   8.9568
    12.1057  12.1060  12.7149  12.9816  12.9817  15.1753  15.1753  15.1905
    17.0503  17.0506  17.1116  20.2488  26.8944

     occupation numbers 
     1.0000   1.0000   1.0000   1.0000   1.0000   1.0000   1.0000   1.0000
     1.0000   1.0000   1.0000   1.0000   1.0000   1.0000   1.0000   1.0000
     1.0000   1.0000   1.0000   1.0000   1.0000   0.4396   0.4395   0.4087
     0.0000   0.0000   0.0000   0.0000   0.0000

          k =-0.1250-0.1250 0.3750     band energies (ev):

   -94.1261 -91.7879 -54.3600 -54.3580 -54.3532 -52.0853 -52.0821 -52.0745
    -2.3401  -1.0281   5.6978   5.9419   6.1852   6.5601   6.8421   9.6125
    11.0095  11.6436  12.3664  12.5513  12.6317  13.4511  14.0234  15.1477
    15.8654  16.3343  20.9452  23.0643  25.1676

     occupation numbers 
     1.0000   1.0000   1.0000   1.0000   1.0000   1.0000   1.0000   1.0000
     1.0000   1.0000   1.0000   1.0000   1.0000   1.0000   1.0000   1.0000
     1.0000   1.0000   1.0000   1.0000   1.0000   1.0000   1.0000   0.4966
     0.0001   0.0000   0.0000   0.0000   0.0000

          k = 0.2500 0.2500-0.7500     band energies (ev):

   -94.1255 -91.7867 -54.3692 -54.3568 -54.3555 -52.0926 -52.0842 -52.0773
    -1.4269  -0.8565   5.8132   5.9877   6.0209   6.9016   7.0822   9.0293
    10.5254  10.8235  11.9094  12.6160  13.0277  13.2471  13.4500  14.7060
    15.4520  15.8897  22.5964  22.8001  25.1095

     occupation numbers 
     1.0000   1.0000   1.0000   1.0000   1.0000   1.0000   1.0000   1.0000
     1.0000   1.0000   1.0000   1.0000   1.0000   1.0000   1.0000   1.0000
     1.0000   1.0000   1.0000   1.0000   1.0000   1.0000   1.0000   0.9889
     0.0559   0.0001   0.0000   0.0000   0.0000

          k =-0.2500 0.2500 0.2500     band energies (ev):

   -94.1261 -91.7879 -54.3601 -54.3581 -54.3532 -52.0853 -52.0822 -52.0745
    -2.2504  -1.1521   5.8939   5.9489   6.0431   6.5656   6.8412   9.6549
    10.8109  11.6021  12.3526  12.5164  12.8194  12.9833  14.4533  15.1766
    16.3648  16.3747  20.3612  22.6725  25.1121

     occupation numbers 
     1.0000   1.0000   1.0000   1.0000   1.0000   1.0000   1.0000   1.0000
     1.0000   1.0000   1.0000   1.0000   1.0000   1.0000   1.0000   1.0000
     1.0000   1.0000   1.0000   1.0000   1.0000   1.0000   0.9998   0.4368
     0.0000   0.0000   0.0000   0.0000   0.0000

          k = 0.1250 0.6250-0.8750     band energies (ev):

   -94.1248 -91.7870 -54.3659 -54.3591 -54.3569 -52.0887 -52.0841 -52.0809
    -1.3152  -0.9970   5.8891   6.1488   6.3606   6.5111   6.7579   9.7032
    10.1594  11.1352  11.8294  12.4098  12.9554  13.0725  13.5665  14.0381
    15.3156  16.3059  23.0509  23.2725  25.3192

     occupation numbers 
     1.0000   1.0000   1.0000   1.0000   1.0000   1.0000   1.0000   1.0000
     1.0000   1.0000   1.0000   1.0000   1.0000   1.0000   1.0000   1.0000
     1.0000   1.0000   1.0000   1.0000   1.0000   1.0000   1.0000   1.0000
     0.1891   0.0000   0.0000   0.0000   0.0000

          k = 0.0000 0.5000-0.5000     band energies (ev):

   -94.1245 -91.7869 -54.3659 -54.3591 -54.3568 -52.0887 -52.0841 -52.0808
    -1.3435  -0.9833   5.8349   6.1892   6.3773   6.5456   6.7900  10.0748
    10.3455  10.7150  12.1385  12.2662  12.8407  13.0715  13.0908  13.9016
    14.8534  16.9321  22.9718  23.9275  25.8826

     occupation numbers 
     1.0000   1.0000   1.0000   1.0000   1.0000   1.0000   1.0000   1.0000
     1.0000   1.0000   1.0000   1.0000   1.0000   1.0000   1.0000   1.0000
     1.0000   1.0000   1.0000   1.0000   1.0000   1.0000   1.0000   1.0000
     0.9358   0.0000   0.0000   0.0000   0.0000

          k = 0.5000-0.5000-0.5000     band energies (ev):

   -94.1251 -91.7865 -54.3693 -54.3569 -54.3552 -52.0925 -52.0839 -52.0768
    -1.1961  -1.0814   5.6232   5.9928   6.2227   6.8437   7.0802   9.1532
     9.3040  11.9209  12.4184  13.0132  13.1442  13.1518  13.1758  13.3501
    17.0679  17.1103  20.2556  20.3189  26.8994

     occupation numbers 
     1.0000   1.0000   1.0000   1.0000   1.0000   1.0000   1.0000   1.0000
     1.0000   1.0000   1.0000   1.0000   1.0000   1.0000   1.0000   1.0000
     1.0000   1.0000   1.0000   1.0000   1.0000   1.0000   1.0000   1.0000
     0.0000   0.0000   0.0000   0.0000   0.0000

          k = 0.1250 0.1250 0.1250     band energies (ev):

   -94.1269 -91.7886 -54.3592 -54.3507 -54.3507 -52.0866 -52.0717 -52.0717
    -2.8914  -1.4718   5.6602   5.7736   5.7736   6.7932   6.7932   9.3673
    12.0367  12.0368  12.4793  12.9442  12.9444  13.7314  15.4266  15.4266
    16.8719  16.8720  18.7293  20.5235  26.5920

     occupation numbers 
     1.0000   1.0000   1.0000   1.0000   1.0000   1.0000   1.0000   1.0000
     1.0000   1.0000   1.0000   1.0000   1.0000   1.0000   1.0000   1.0000
     1.0000   1.0000   1.0000   1.0000   1.0000   1.0000   0.0724   0.0724
     0.0000   0.0000   0.0000   0.0000   0.0000

          k = 0.5000 0.5000-1.0000     band energies (ev):

   -94.1261 -91.7878 -54.3601 -54.3580 -54.3531 -52.0854 -52.0821 -52.0745
    -2.0922  -1.3292   5.5986   5.9482   6.2363   6.5240   6.8442   9.7707
    11.1953  11.6004  12.2904  12.6863  12.7582  13.6181  14.5339  14.5814
    14.7007  16.8927  21.9329  22.9675  25.8574

     occupation numbers 
     1.0000   1.0000   1.0000   1.0000   1.0000   1.0000   1.0000   1.0000
     1.0000   1.0000   1.0000   1.0000   1.0000   1.0000   1.0000   1.0000
     1.0000   1.0000   1.0000   1.0000   1.0000   1.0000   0.9993   0.9983
     0.9897   0.0000   0.0000   0.0000   0.0000

          k = 0.3750 0.3750-0.6250     band energies (ev):

   -94.1254 -91.7865 -54.3693 -54.3569 -54.3556 -52.0926 -52.0841 -52.0772
    -1.3458  -0.9349   5.7306   5.9898   6.1137   6.8500   7.0811   9.0421
     9.8308  11.5962  12.0986  12.6369  13.0371  13.1544  13.4951  13.9340
    16.1857  16.5963  21.2192  21.5757  26.0131

     occupation numbers 
     1.0000   1.0000   1.0000   1.0000   1.0000   1.0000   1.0000   1.0000
     1.0000   1.0000   1.0000   1.0000   1.0000   1.0000   1.0000   1.0000
     1.0000   1.0000   1.0000   1.0000   1.0000   1.0000   1.0000   1.0000
     0.0000   0.0000   0.0000   0.0000   0.0000

          k = 0.8750-0.6250-0.6250     band energies (ev):

   -94.1260 -91.7878 -54.3601 -54.3581 -54.3531 -52.0853 -52.0821 -52.0745
    -1.8694  -1.5852   5.7234   5.9552   6.1639   6.5278   6.8433   9.8975
    10.8270  11.5956  12.2760  12.7120  12.7153  13.5727  14.4616  14.5794
    15.4992  16.9253  21.5109  22.3728  26.0199

     occupation numbers 
     1.0000   1.0000   1.0000   1.0000   1.0000   1.0000   1.0000   1.0000
     1.0000   1.0000   1.0000   1.0000   1.0000   1.0000   1.0000   1.0000
     1.0000   1.0000   1.0000   1.0000   1.0000   1.0000   0.9998   0.9984
     0.0332   0.0000   0.0000   0.0000   0.0000

          k = 0.7500-0.7500-0.2500     band energies (ev):

   -94.1252 -91.7870 -54.3659 -54.3591 -54.3569 -52.0886 -52.0841 -52.0809
    -1.2836  -1.0141   6.0171   6.0407   6.3976   6.4087   6.7291   9.5008
     9.9458  11.6103  11.8480  12.1562  12.9031  13.0249  14.0498  14.4736
    15.5847  15.8050  22.6139  22.7936  25.0438

     occupation numbers 
     1.0000   1.0000   1.0000   1.0000   1.0000   1.0000   1.0000   1.0000
     1.0000   1.0000   1.0000   1.0000   1.0000   1.0000   1.0000   1.0000
     1.0000   1.0000   1.0000   1.0000   1.0000   1.0000   1.0000   0.9998
     0.0113   0.0003   0.0000   0.0000   0.0000

          k =-0.2500-0.2500-0.2500     band energies (ev):

   -94.1269 -91.7886 -54.3592 -54.3507 -54.3507 -52.0867 -52.0717 -52.0717
    -2.2794  -2.2226   5.7817   5.7817   5.8560   6.7973   6.7974  10.1888
    11.5622  11.9685  11.9693  12.9099  12.9103  13.0826  15.7453  15.7453
    16.6106  16.6107  20.3216  20.3899  26.7884

     occupation numbers 
     1.0000   1.0000   1.0000   1.0000   1.0000   1.0000   1.0000   1.0000
     1.0000   1.0000   1.0000   1.0000   1.0000   1.0000   1.0000   1.0000
     1.0000   1.0000   1.0000   1.0000   1.0000   1.0000   0.0009   0.0009
     0.0000   0.0000   0.0000   0.0000   0.0000

     the Fermi energy is    15.1460 ev

!    total energy              =    -749.07326698 Ry
     Harris-Foulkes estimate   =    -750.30873962 Ry
     estimated scf accuracy    <       7.35072696 Ry
     smearing contrib. (-TS)   =      -0.00515686 Ry
     internal energy E=F+TS    =    -749.06811013 Ry

     The total energy is F=E-TS. E is the sum of the following terms:
     one-electron contribution =    -464.59276741 Ry
     hartree contribution      =     248.68738169 Ry
     xc contribution           =     -86.25177604 Ry
     ewald contribution        =    -478.66310909 Ry
     Hubbard energy            =       1.10408387 Ry
     scf correction            =      30.64807686 Ry
 
     Band energy sum           =     -53.79613625 Ry

     total magnetization       =    -0.01 Bohr mag/cell
     absolute magnetization    =     1.78 Bohr mag/cell

     iteration #  3     ecut=    64.00 Ry     beta= 0.25
     Davidson diagonalization with overlap

---- Real-time Memory Report at c_bands before calling an iterative solver
           402 MiB given to the printing process from OS
           353 MiB allocation reported by mallinfo(arena+hblkhd)
         53491 MiB available memory on the node where the printing process lives
------------------
     ethr =  1.00E-02,  avg # of iterations =  2.0

     =================== HUBBARD OCCUPATIONS ===================
     ------------------------ ATOM    1 ------------------------
     Tr[ns(  1)] (up, down, total) =   4.97208  3.28075  8.25283
     Atomic magnetic moment for atom   1 =   1.69133
     SPIN  1
     eigenvalues:
       0.994  0.994  0.995  0.995  0.995
     eigenvectors (columns):
       0.355 -0.921 -0.000 -0.142 -0.079
       0.083  0.103  0.577 -0.691  0.414
      -0.131  0.021  0.577 -0.013 -0.806
      -0.921 -0.355  0.000 -0.079  0.142
      -0.048  0.123 -0.577 -0.704 -0.391
     occupation matrix ns (before diag.):
       0.994  0.000  0.000 -0.000  0.000
       0.000  0.995 -0.000  0.000  0.000
       0.000 -0.000  0.995 -0.000  0.000
      -0.000  0.000 -0.000  0.994 -0.000
       0.000  0.000  0.000 -0.000  0.995
     SPIN  2
     eigenvalues:
       0.171  0.171  0.979  0.979  0.981
     eigenvectors (columns):
       0.215 -0.977 -0.002 -0.001  0.000
      -0.001  0.000 -0.618  0.534 -0.577
       0.001  0.001 -0.154 -0.802 -0.577
       0.977  0.215 -0.001  0.002 -0.000
      -0.000  0.001 -0.771 -0.268  0.577
     occupation matrix ns (before diag.):
       0.171  0.001  0.001 -0.000  0.001
       0.001  0.979  0.001  0.001 -0.001
       0.001  0.001  0.979 -0.001 -0.001
      -0.000  0.001 -0.001  0.171 -0.000
       0.001 -0.001 -0.001 -0.000  0.979
     ------------------------ ATOM    2 ------------------------
     Tr[ns(  2)] (up, down, total) =   3.28962  4.97296  8.26258
     Atomic magnetic moment for atom   2 =  -1.68334
     SPIN  1
     eigenvalues:
       0.173  0.173  0.981  0.981  0.982
     eigenvectors (columns):
      -0.141 -0.990 -0.006 -0.002 -0.000
      -0.004  0.003 -0.634  0.514 -0.577
       0.005  0.002 -0.128 -0.806 -0.577
       0.990 -0.141 -0.002  0.006 -0.000
       0.001  0.006 -0.762 -0.292  0.577
     occupation matrix ns (before diag.):
       0.173  0.002  0.002 -0.000  0.005
       0.002  0.981  0.000  0.004 -0.000
       0.002  0.000  0.981 -0.004 -0.000
      -0.000  0.004 -0.004  0.173 -0.000
       0.005 -0.000 -0.000 -0.000  0.981
     SPIN  2
     eigenvalues:
       0.994  0.994  0.995  0.995  0.995
     eigenvectors (columns):
       0.421 -0.884 -0.000 -0.167 -0.114
       0.094  0.136  0.577 -0.720  0.348
      -0.165  0.013  0.577  0.059 -0.797
      -0.884 -0.421 -0.000 -0.114  0.167
      -0.071  0.149 -0.577 -0.661 -0.450
     occupation matrix ns (before diag.):
       0.994  0.000  0.000 -0.000  0.000
       0.000  0.995  0.000  0.000 -0.000
       0.000  0.000  0.995 -0.000 -0.000
      -0.000  0.000 -0.000  0.994 -0.000
       0.000 -0.000 -0.000 -0.000  0.995

     Number of occupied Hubbard levels =   16.5154

     HUBBARD ENERGY =    1.0145  (Ry)

     total cpu time spent up to now is       39.9 secs

 ------ SPIN UP ------------


          k = 0.0000 0.0000 0.0000     band energies (ev):

   -89.0945 -87.0413 -49.5313 -49.5162 -49.5162 -47.5390 -47.5232 -47.5232
    -5.4993  -3.9877   6.1351   8.2715   8.2715  10.4132  10.4132  10.7482
    12.0771  12.0771  12.0843  12.8328  12.8329  15.0209  15.1109  15.1110
    16.1827  17.8889  17.8889  19.9395  25.0041

     occupation numbers 
     1.0000   1.0000   1.0000   1.0000   1.0000   1.0000   1.0000   1.0000
     1.0000   1.0000   1.0000   1.0000   1.0000   1.0000   1.0000   1.0000
     1.0000   1.0000   1.0000   1.0000   1.0000   1.0000   1.0000   1.0000
     0.3901   0.0000   0.0000   0.0000   0.0000

          k =-0.1250-0.1250 0.3750     band energies (ev):

   -89.0935 -87.0402 -49.5295 -49.5288 -49.5194 -47.5374 -47.5369 -47.5267
    -4.8827  -3.9146   7.0618   8.1103   8.4599   8.5894  10.0755  10.3061
    10.5691  11.5556  11.7975  13.0561  13.0740  14.7781  15.3407  15.4045
    17.3366  17.7715  19.4274  22.8034  24.2289

     occupation numbers 
     1.0000   1.0000   1.0000   1.0000   1.0000   1.0000   1.0000   1.0000
     1.0000   1.0000   1.0000   1.0000   1.0000   1.0000   1.0000   1.0000
     1.0000   1.0000   1.0000   1.0000   1.0000   1.0000   1.0000   0.9999
     0.0000   0.0000   0.0000   0.0000   0.0000

          k = 0.2500 0.2500-0.7500     band energies (ev):

   -89.0927 -87.0389 -49.5412 -49.5277 -49.5226 -47.5510 -47.5355 -47.5302
    -4.1504  -3.8366   6.9842   7.7360   7.8915   8.4127   9.6465  10.2822
    10.5931  10.9100  11.6050  12.9894  13.3832  14.5094  15.6096  15.6311
    17.7073  17.7544  22.1175  22.4200  24.3833

     occupation numbers 
     1.0000   1.0000   1.0000   1.0000   1.0000   1.0000   1.0000   1.0000
     1.0000   1.0000   1.0000   1.0000   1.0000   1.0000   1.0000   1.0000
     1.0000   1.0000   1.0000   1.0000   1.0000   1.0000   0.9965   0.9952
     0.0000   0.0000   0.0000   0.0000   0.0000

          k =-0.2500 0.2500 0.2500     band energies (ev):

   -89.0935 -87.0403 -49.5295 -49.5288 -49.5195 -47.5374 -47.5369 -47.5267
    -4.8172  -3.9950   7.2645   8.0340   8.4281   8.5206  10.0155  10.2422
    10.6549  11.3853  11.5770  13.3655  13.4261  14.7486  15.2674  15.4282
    17.6585  17.6858  19.0231  22.2600  24.4926

     occupation numbers 
     1.0000   1.0000   1.0000   1.0000   1.0000   1.0000   1.0000   1.0000
     1.0000   1.0000   1.0000   1.0000   1.0000   1.0000   1.0000   1.0000
     1.0000   1.0000   1.0000   1.0000   1.0000   1.0000   1.0000   0.9999
     0.0000   0.0000   0.0000   0.0000   0.0000

          k = 0.1250 0.6250-0.8750     band energies (ev):

   -89.0925 -87.0391 -49.5367 -49.5278 -49.5274 -47.5457 -47.5355 -47.5352
    -4.1135  -3.8796   7.1315   7.7386   8.2821   8.5111   8.9459   9.7026
    11.0625  11.1873  11.5903  12.8325  13.1009  15.0497  15.2845  15.6265
    17.5549  17.9146  21.9243  23.0068  25.0108

     occupation numbers 
     1.0000   1.0000   1.0000   1.0000   1.0000   1.0000   1.0000   1.0000
     1.0000   1.0000   1.0000   1.0000   1.0000   1.0000   1.0000   1.0000
     1.0000   1.0000   1.0000   1.0000   1.0000   1.0000   1.0000   0.9955
     0.0000   0.0000   0.0000   0.0000   0.0000

          k = 0.0000 0.5000-0.5000     band energies (ev):

   -89.0925 -87.0391 -49.5367 -49.5277 -49.5274 -47.5458 -47.5356 -47.5351
    -4.1459  -3.8516   7.1595   8.1092   8.3037   8.6938   8.7354   9.1974
    10.9755  11.2276  11.8749  12.3711  13.2822  15.0269  15.3409  15.6209
    17.4077  18.1095  21.7933  23.4127  25.6606

     occupation numbers 
     1.0000   1.0000   1.0000   1.0000   1.0000   1.0000   1.0000   1.0000
     1.0000   1.0000   1.0000   1.0000   1.0000   1.0000   1.0000   1.0000
     1.0000   1.0000   1.0000   1.0000   1.0000   1.0000   1.0000   0.9959
     0.0000   0.0000   0.0000   0.0000   0.0000

          k = 0.5000-0.5000-0.5000     band energies (ev):

   -89.0926 -87.0392 -49.5413 -49.5278 -49.5226 -47.5508 -47.5352 -47.5302
    -3.9885  -3.9868   6.1810   7.7886   8.4257   8.4902   9.8753  10.6561
    10.6605  10.9034  11.3008  13.1481  13.2774  14.6969  15.5877  15.6491
    18.0178  18.1572  19.9449  20.8430  25.0178

     occupation numbers 
     1.0000   1.0000   1.0000   1.0000   1.0000   1.0000   1.0000   1.0000
     1.0000   1.0000   1.0000   1.0000   1.0000   1.0000   1.0000   1.0000
     1.0000   1.0000   1.0000   1.0000   1.0000   1.0000   0.9975   0.9937
     0.0000   0.0000   0.0000   0.0000   0.0000

          k = 0.1250 0.1250 0.1250     band energies (ev):

   -89.0946 -87.0412 -49.5312 -49.5162 -49.5162 -47.5391 -47.5232 -47.5232
    -5.3110  -4.2515   6.7218   8.3408   8.3408  10.1650  10.4260  10.4261
    11.5137  11.5283  11.5283  13.4050  13.4050  14.9191  15.0798  15.0798
    17.2814  17.7603  17.7603  19.9195  25.2327

     occupation numbers 
     1.0000   1.0000   1.0000   1.0000   1.0000   1.0000   1.0000   1.0000
     1.0000   1.0000   1.0000   1.0000   1.0000   1.0000   1.0000   1.0000
     1.0000   1.0000   1.0000   1.0000   1.0000   1.0000   1.0000   1.0000
     0.0000   0.0000   0.0000   0.0000   0.0000

          k = 0.5000 0.5000-1.0000     band energies (ev):

   -89.0935 -87.0402 -49.5296 -49.5288 -49.5194 -47.5374 -47.5370 -47.5267
    -4.6902  -4.1385   7.0288   8.1988   8.4943   8.6453  10.0694  10.3218
    10.6744  11.8065  11.9789  12.2345  12.9454  14.8215  15.3853  15.4141
    17.0707  17.9310  20.4756  21.7895  25.6505

     occupation numbers 
     1.0000   1.0000   1.0000   1.0000   1.0000   1.0000   1.0000   1.0000
     1.0000   1.0000   1.0000   1.0000   1.0000   1.0000   1.0000   1.0000
     1.0000   1.0000   1.0000   1.0000   1.0000   1.0000   0.9999   0.9999
     0.0000   0.0000   0.0000   0.0000   0.0000

          k = 0.3750 0.3750-0.6250     band energies (ev):

   -89.0926 -87.0390 -49.5412 -49.5277 -49.5226 -47.5509 -47.5354 -47.5302
    -4.1015  -3.8797   6.4981   7.6589   8.4196   8.4635   9.6968  10.3889
    10.6231  10.9073  11.5218  13.1094  13.2619  14.6098  15.6002  15.6418
    17.8637  17.8992  20.9792  21.4522  24.8839

     occupation numbers 
     1.0000   1.0000   1.0000   1.0000   1.0000   1.0000   1.0000   1.0000
     1.0000   1.0000   1.0000   1.0000   1.0000   1.0000   1.0000   1.0000
     1.0000   1.0000   1.0000   1.0000   1.0000   1.0000   0.9970   0.9943
     0.0000   0.0000   0.0000   0.0000   0.0000

          k = 0.8750-0.6250-0.6250     band energies (ev):

   -89.0935 -87.0402 -49.5296 -49.5289 -49.5195 -47.5373 -47.5370 -47.5267
    -4.5300  -4.3134   7.2415   7.9170   8.5577   8.7765  10.0051  10.1727
    10.7040  11.5283  11.5715  12.9083  13.2473  14.7939  15.3283  15.4064
    17.3448  17.8255  20.1758  21.3842  25.7913

     occupation numbers 
     1.0000   1.0000   1.0000   1.0000   1.0000   1.0000   1.0000   1.0000
     1.0000   1.0000   1.0000   1.0000   1.0000   1.0000   1.0000   1.0000
     1.0000   1.0000   1.0000   1.0000   1.0000   1.0000   1.0000   0.9999
     0.0000   0.0000   0.0000   0.0000   0.0000

          k = 0.7500-0.7500-0.2500     band energies (ev):

   -89.0924 -87.0392 -49.5367 -49.5279 -49.5274 -47.5457 -47.5354 -47.5352
    -4.0698  -3.9189   7.1883   7.3675   8.2559   8.4437   9.1624  10.0330
    11.0921  11.1907  11.4630  12.8432  13.2126  15.0717  15.2384  15.6294
    17.7164  17.7328  22.1579  22.4018  24.3376

     occupation numbers 
     1.0000   1.0000   1.0000   1.0000   1.0000   1.0000   1.0000   1.0000
     1.0000   1.0000   1.0000   1.0000   1.0000   1.0000   1.0000   1.0000
     1.0000   1.0000   1.0000   1.0000   1.0000   1.0000   1.0000   0.9953
     0.0000   0.0000   0.0000   0.0000   0.0000

          k =-0.2500-0.2500-0.2500     band energies (ev):

   -89.0946 -87.0412 -49.5312 -49.5162 -49.5162 -47.5393 -47.5232 -47.5232
    -4.8302  -4.8049   7.8199   8.4179   8.4179   8.8734  10.4419  10.4419
    11.1805  11.1808  11.3043  13.7836  13.7836  14.8052  15.0392  15.0457
    17.6241  17.6241  18.9401  19.0979  26.5984

     occupation numbers 
     1.0000   1.0000   1.0000   1.0000   1.0000   1.0000   1.0000   1.0000
     1.0000   1.0000   1.0000   1.0000   1.0000   1.0000   1.0000   1.0000
     1.0000   1.0000   1.0000   1.0000   1.0000   1.0000   1.0000   1.0000
     0.0000   0.0000   0.0000   0.0000   0.0000

 ------ SPIN DOWN ----------


          k = 0.0000 0.0000 0.0000     band energies (ev):

   -89.1621 -86.9780 -49.5958 -49.5820 -49.5820 -47.4796 -47.4612 -47.4612
    -5.4988  -3.9869   6.1246   8.2357   8.2358  10.3601  10.3601  10.6934
    12.0776  12.0776  12.0857  12.8220  12.8221  15.0986  15.1623  15.1623
    16.1819  17.9184  17.9184  19.9390  25.0046

     occupation numbers 
     1.0000   1.0000   1.0000   1.0000   1.0000   1.0000   1.0000   1.0000
     1.0000   1.0000   1.0000   1.0000   1.0000   1.0000   1.0000   1.0000
     1.0000   1.0000   1.0000   1.0000   1.0000   1.0000   1.0000   1.0000
     0.3918   0.0000   0.0000   0.0000   0.0000

          k =-0.1250-0.1250 0.3750     band energies (ev):

   -89.1611 -86.9769 -49.5946 -49.5940 -49.5852 -47.4778 -47.4751 -47.4647
    -4.8822  -3.9149   7.0474   8.0873   8.4251   8.5727  10.0385  10.3000
    10.5232  11.5145  11.7797  13.0319  13.0570  14.8416  15.4075  15.4617
    17.3669  17.8026  19.4312  22.8036  24.2285

     occupation numbers 
     1.0000   1.0000   1.0000   1.0000   1.0000   1.0000   1.0000   1.0000
     1.0000   1.0000   1.0000   1.0000   1.0000   1.0000   1.0000   1.0000
     1.0000   1.0000   1.0000   1.0000   1.0000   1.0000   0.9999   0.9997
     0.0000   0.0000   0.0000   0.0000   0.0000

          k = 0.2500 0.2500-0.7500     band energies (ev):

   -89.1603 -86.9755 -49.6068 -49.5922 -49.5883 -47.4891 -47.4761 -47.4682
    -4.1508  -3.8370   6.9708   7.7401   7.8637   8.3791   9.6520  10.2193
    10.5933  10.8530  11.5557  12.9565  13.3585  14.5711  15.6839  15.6954
    17.7398  17.7891  22.1068  22.4243  24.3845

     occupation numbers 
     1.0000   1.0000   1.0000   1.0000   1.0000   1.0000   1.0000   1.0000
     1.0000   1.0000   1.0000   1.0000   1.0000   1.0000   1.0000   1.0000
     1.0000   1.0000   1.0000   1.0000   1.0000   1.0000   0.9896   0.9879
     0.0000   0.0000   0.0000   0.0000   0.0000

          k =-0.2500 0.2500 0.2500     band energies (ev):

   -89.1610 -86.9769 -49.5946 -49.5940 -49.5852 -47.4778 -47.4751 -47.4646
    -4.8166  -3.9954   7.2535   8.0061   8.4136   8.4843   9.9818  10.2340
    10.6113  11.3445  11.5580  13.3470  13.4030  14.8084  15.3373  15.4847
    17.6909  17.7204  19.0228  22.2790  24.4750

     occupation numbers 
     1.0000   1.0000   1.0000   1.0000   1.0000   1.0000   1.0000   1.0000
     1.0000   1.0000   1.0000   1.0000   1.0000   1.0000   1.0000   1.0000
     1.0000   1.0000   1.0000   1.0000   1.0000   1.0000   1.0000   0.9996
     0.0000   0.0000   0.0000   0.0000   0.0000

          k = 0.1250 0.6250-0.8750     band energies (ev):

   -89.1600 -86.9758 -49.6023 -49.5931 -49.5923 -47.4837 -47.4759 -47.4733
    -4.1134  -3.8806   7.1205   7.7282   8.2619   8.4893   8.9157   9.6943
    11.0164  11.1341  11.5596  12.8035  13.0764  15.1248  15.3371  15.6939
    17.5868  17.9474  21.9235  23.0062  24.9969

     occupation numbers 
     1.0000   1.0000   1.0000   1.0000   1.0000   1.0000   1.0000   1.0000
     1.0000   1.0000   1.0000   1.0000   1.0000   1.0000   1.0000   1.0000
     1.0000   1.0000   1.0000   1.0000   1.0000   1.0000   1.0000   0.9881
     0.0000   0.0000   0.0000   0.0000   0.0000

          k = 0.0000 0.5000-0.5000     band energies (ev):

   -89.1601 -86.9757 -49.6023 -49.5931 -49.5922 -47.4838 -47.4759 -47.4733
    -4.1457  -3.8526   7.1463   8.0900   8.2893   8.6636   8.7166   9.1992
    10.9214  11.1760  11.8446  12.3385  13.2574  15.1052  15.3939  15.6880
    17.4389  18.1421  21.7931  23.4117  25.6584

     occupation numbers 
     1.0000   1.0000   1.0000   1.0000   1.0000   1.0000   1.0000   1.0000
     1.0000   1.0000   1.0000   1.0000   1.0000   1.0000   1.0000   1.0000
     1.0000   1.0000   1.0000   1.0000   1.0000   1.0000   0.9999   0.9891
     0.0000   0.0000   0.0000   0.0000   0.0000

          k = 0.5000-0.5000-0.5000     band energies (ev):

   -89.1601 -86.9758 -49.6069 -49.5923 -49.5883 -47.4889 -47.4757 -47.4682
    -3.9901  -3.9861   6.1751   7.7889   8.3921   8.4571   9.8313  10.6564
    10.6615  10.8466  11.2443  13.1264  13.2617  14.7450  15.6619  15.7137
    18.0470  18.1900  19.9438  20.8413  25.0154

     occupation numbers 
     1.0000   1.0000   1.0000   1.0000   1.0000   1.0000   1.0000   1.0000
     1.0000   1.0000   1.0000   1.0000   1.0000   1.0000   1.0000   1.0000
     1.0000   1.0000   1.0000   1.0000   1.0000   1.0000   0.9924   0.9846
     0.0000   0.0000   0.0000   0.0000   0.0000

          k = 0.1250 0.1250 0.1250     band energies (ev):

   -89.1621 -86.9779 -49.5958 -49.5819 -49.5819 -47.4797 -47.4612 -47.4612
    -5.3105  -4.2507   6.7081   8.3032   8.3032  10.1391  10.3725  10.3725
    11.4812  11.5320  11.5320  13.3901  13.3901  14.9934  15.1323  15.1323
    17.2792  17.7916  17.7916  19.9199  25.2330

     occupation numbers 
     1.0000   1.0000   1.0000   1.0000   1.0000   1.0000   1.0000   1.0000
     1.0000   1.0000   1.0000   1.0000   1.0000   1.0000   1.0000   1.0000
     1.0000   1.0000   1.0000   1.0000   1.0000   1.0000   1.0000   1.0000
     0.0000   0.0000   0.0000   0.0000   0.0000

          k = 0.5000 0.5000-1.0000     band energies (ev):

   -89.1610 -86.9768 -49.5946 -49.5940 -49.5851 -47.4779 -47.4751 -47.4647
    -4.6897  -4.1386   7.0128   8.1855   8.4585   8.6170  10.0332  10.2790
    10.6712  11.7908  11.9471  12.2073  12.9264  14.8823  15.4441  15.4811
    17.0985  17.9607  20.4798  21.7903  25.6511

     occupation numbers 
     1.0000   1.0000   1.0000   1.0000   1.0000   1.0000   1.0000   1.0000
     1.0000   1.0000   1.0000   1.0000   1.0000   1.0000   1.0000   1.0000
     1.0000   1.0000   1.0000   1.0000   1.0000   1.0000   0.9998   0.9996
     0.0000   0.0000   0.0000   0.0000   0.0000

          k = 0.3750 0.3750-0.6250     band energies (ev):

   -89.1602 -86.9757 -49.6069 -49.5923 -49.5883 -47.4890 -47.4759 -47.4682
    -4.1019  -3.8801   6.4906   7.6504   8.3861   8.4408   9.6791  10.3478
    10.6232  10.8505  11.4745  13.0862  13.2388  14.6638  15.6746  15.7063
    17.8943  17.9323  20.9791  21.4505  24.8829

     occupation numbers 
     1.0000   1.0000   1.0000   1.0000   1.0000   1.0000   1.0000   1.0000
     1.0000   1.0000   1.0000   1.0000   1.0000   1.0000   1.0000   1.0000
     1.0000   1.0000   1.0000   1.0000   1.0000   1.0000   0.9909   0.9860
     0.0000   0.0000   0.0000   0.0000   0.0000

          k = 0.8750-0.6250-0.6250     band energies (ev):

   -89.1610 -86.9769 -49.5946 -49.5940 -49.5852 -47.4778 -47.4750 -47.4646
    -4.5290  -4.3143   7.2249   7.9079   8.5203   8.7378   9.9726  10.1547
    10.6819  11.4893  11.5538  12.8827  13.2276  14.8518  15.3968  15.4647
    17.3700  17.8563  20.1762  21.3874  25.8065

     occupation numbers 
     1.0000   1.0000   1.0000   1.0000   1.0000   1.0000   1.0000   1.0000
     1.0000   1.0000   1.0000   1.0000   1.0000   1.0000   1.0000   1.0000
     1.0000   1.0000   1.0000   1.0000   1.0000   1.0000   0.9999   0.9997
     0.0000   0.0000   0.0000   0.0000   0.0000

          k = 0.7500-0.7500-0.2500     band energies (ev):

   -89.1600 -86.9758 -49.6023 -49.5932 -49.5923 -47.4837 -47.4758 -47.4733
    -4.0697  -3.9198   7.1792   7.3596   8.2345   8.4187   9.1280  10.0202
    11.0506  11.1389  11.4359  12.8169  13.1864  15.1437  15.2910  15.6970
    17.7492  17.7652  22.1328  22.4114  24.3333

     occupation numbers 
     1.0000   1.0000   1.0000   1.0000   1.0000   1.0000   1.0000   1.0000
     1.0000   1.0000   1.0000   1.0000   1.0000   1.0000   1.0000   1.0000
     1.0000   1.0000   1.0000   1.0000   1.0000   1.0000   1.0000   0.9876
     0.0000   0.0000   0.0000   0.0000   0.0000

          k =-0.2500-0.2500-0.2500     band energies (ev):

   -89.1622 -86.9778 -49.5957 -49.5819 -49.5819 -47.4798 -47.4612 -47.4612
    -4.8318  -4.8020   7.7872   8.3781   8.3781   8.8851  10.3877  10.3877
    11.1881  11.1881  11.2610  13.7638  13.7638  14.8802  15.0932  15.0932
    17.6576  17.6576  18.9327  19.1060  26.5951

     occupation numbers 
     1.0000   1.0000   1.0000   1.0000   1.0000   1.0000   1.0000   1.0000
     1.0000   1.0000   1.0000   1.0000   1.0000   1.0000   1.0000   1.0000
[...]
      cegterg:init                  676     270.85 ms       0.10     100.00     370.29 us     320.51 us     886.82 us
      cegterg:update               1887     516.31 ms       0.18     100.00     281.96 us      45.23 us     727.84 us
      g_psi                        1887     151.00 ms       0.05     100.00      67.39 us       9.73 us     365.26 us
      cegterg:overlap              1887     666.03 ms       0.24     100.00     310.04 us      71.09 us     980.00 us
      cegterg:diag                 2537       2.24 s        0.80       0.63     898.25 us     240.10 us       1.81 ms
       cdiaghg                    2537       2.22 s        0.79     100.00     893.50 us     235.86 us       1.80 ms
      cegterg:last                 1251     853.26 ms       0.30     100.00     356.08 us     198.63 us       2.69 ms
   sum_band                           26      48.70 s       17.38       0.27       1.87 s        1.81 s        1.96 s 
    sum_band:weights                 26       3.78 ms       0.00     100.00     106.30 us      99.19 us     491.63 us
    new_ns                           26     238.77 ms       0.09      71.57       9.08 ms       7.70 ms      10.14 ms
     calbec                        676      67.88 ms       0.02     100.00      94.18 us      62.56 us     233.35 us
    sum_band:loop                    26      34.75 s       12.41       8.56       1.34 s        1.30 s        1.42 s 
     sum_band:buffer               676     172.02 ms       0.06     100.00     255.00 us     151.63 us     475.98 us
     sum_band:init_us_2            676     679.46 ms       0.24       0.35     986.45 us     906.17 us       1.44 ms
      init_us_2                   676     677.06 ms       0.24       0.69     983.02 us     903.83 us       1.43 ms
        init_us_2:cpu             676     672.36 ms       0.24     100.00     976.81 us     898.96 us       1.42 ms
     fftw                        19604      30.57 s       10.91     100.00       1.53 ms       1.37 ms       4.34 ms
     sum_band:calbec               676     316.17 ms       0.11       1.86     451.25 us     353.07 us     789.27 us
      calbec                      676     310.28 ms       0.11     100.00     441.48 us     346.63 us     779.49 us
     sum_band:becsum               676      38.88 ms       0.01     100.00      55.02 us      38.07 us     219.70 us
    ffts                             52     128.38 ms       0.05     100.00       2.41 ms       2.36 ms       3.38 ms
    addusdens                        26      12.56 s        4.48      13.57     480.89 ms     452.63 ms     510.78 ms
     addusd:skk                     78      16.79 ms       0.01     100.00     211.77 us     142.89 us     322.90 us
     addusd:dgemm                  156       2.61 s        0.93     100.00      12.87 ms       7.78 ms      37.04 ms
     addusd:qvan2                  156       8.23 s        2.94     100.00      60.92 ms      29.68 ms      79.57 ms
    sum_band:sym_rho                 26     883.63 ms       0.32      26.40      33.62 ms      31.86 ms      37.98 ms
      fft                            52     650.38 ms       0.23     100.00      12.36 ms      11.47 ms      14.53 ms
   diagh                             104       3.38 ms       0.00     100.00      11.01 us       6.08 us     236.90 us
   mix_rho                            26       1.68 s        0.60      23.91      64.47 ms     538.05 us      80.13 ms
    fft                             100       1.28 s        0.46     100.00      12.03 ms      11.43 ms      20.48 ms
   v_of_rho                           26      19.05 s        6.80       0.01     726.97 ms     698.44 ms     766.67 ms
    v_xc                             26      18.61 s        6.64      74.61     710.19 ms     681.98 ms     749.21 ms
     fft                           364       4.73 s        1.69     100.00      12.46 ms      11.43 ms      33.50 ms
    v_h                              26     439.86 ms       0.16      24.30      16.53 ms      15.47 ms      23.63 ms
      fft                            26     332.98 ms       0.12     100.00      12.47 ms      11.61 ms      18.77 ms
   interpolate                        52     899.11 ms       0.32      10.68      16.94 ms      15.61 ms      20.49 ms
    fft                              52     680.92 ms       0.24     100.00      12.66 ms      11.92 ms      16.09 ms
    ffts                             52     122.16 ms       0.04     100.00       2.31 ms       2.27 ms       3.29 ms
   newd                               26      11.83 s        4.22      94.18     448.16 ms     431.11 ms     520.46 ms
     fft                              52     688.75 ms       0.25     100.00      13.00 ms      12.15 ms      17.71 ms
  ions                                  1      10.52 s        3.76       0.00      10.52 s       10.52 s       10.52 s 
   forces                              1       1.84 s        0.66       0.56       1.84 s        1.84 s        1.84 s 
    frc_us                            1     641.75 ms       0.23      84.96     641.75 ms     641.75 ms     641.75 ms
     init_us_2                      26      26.11 ms       0.01       0.96     950.25 us     878.29 us       1.33 ms
      init_us_2:cpu                26      25.86 ms       0.01     100.00     941.02 us     870.20 us       1.31 ms
     calbec                        104      38.06 ms       0.01     100.00     346.79 us     286.53 us     529.13 us
     fft                             2      32.33 ms       0.01     100.00      16.16 ms      14.75 ms      17.58 ms
    frc_lc                            1      27.54 ms       0.01      41.20      27.54 ms      27.54 ms      27.54 ms
     fft                             1      16.19 ms       0.01     100.00      16.19 ms      16.19 ms      16.19 ms
    frc_cc                            1     806.95 ms       0.29       3.43     806.95 ms     806.95 ms     806.95 ms
     v_xc                            1     763.11 ms       0.27      73.95     763.11 ms     763.11 ms     763.11 ms
      fft                          14     198.81 ms       0.07     100.00      14.14 ms      12.76 ms      16.10 ms
     fft                             1      16.20 ms       0.01     100.00      16.20 ms      16.20 ms      16.20 ms
    force_hub                         1     320.36 ms       0.11       2.67     320.36 ms     320.36 ms     320.36 ms
     init_us_2                      26      28.66 ms       0.01       0.83       1.09 ms     980.93 us       1.48 ms
      init_us_2:cpu                26      28.42 ms       0.01     100.00       1.08 ms     973.49 us       1.47 ms
     calbec                         52      14.90 ms       0.01     100.00     271.39 us      92.06 us     529.15 us
     s_psi_bgrp                     26      10.36 ms       0.00      11.88     420.50 us     310.04 us     482.22 us
      s_psi                        26       9.13 ms       0.00     100.00     370.51 us     273.82 us     431.14 us
     atomic_wfc                     26      24.28 ms       0.01     100.00     922.47 us     825.66 us       1.15 ms
     dndtau                        312     233.61 ms       0.08      41.90     797.65 us     517.86 us       1.18 ms
       calbec                     1248     115.44 ms       0.04     100.00      92.47 us      43.16 us     325.86 us
       dprojdtau                   624      20.30 ms       0.01     100.00       1.98 us       1.05 us     174.03 us
    frc_scc                           1      35.44 ms       0.01      62.00      35.44 ms      35.44 ms      35.44 ms
      fft                             1      13.47 ms       0.00     100.00      13.47 ms      13.47 ms      13.47 ms
   stress                              1       8.68 s        3.10      72.23       8.68 s        8.68 s        8.68 s 
     fft                              11     143.04 ms       0.05     100.00      12.89 ms      11.71 ms      15.15 ms
     v_xc                              1     740.11 ms       0.26      73.39     740.11 ms     740.11 ms     740.11 ms
      fft                            14     196.95 ms       0.07     100.00      13.21 ms      11.88 ms      21.01 ms
     init_us_2                        26      28.35 ms       0.01       1.27       1.06 ms       1.01 ms       1.46 ms
      init_us_2:cpu                  26      27.99 ms       0.01     100.00       1.05 ms     995.48 us       1.44 ms
     calbec                           26      23.42 ms       0.01     100.00     582.73 us     482.14 us       2.97 ms
     stres_us31                       26     595.83 us       0.00     100.00      22.13 us      15.66 us      37.67 us
     stres_us32                       26       8.39 ms       0.00     100.00     292.35 us     271.55 us     586.19 us
     stres_us33                       26      12.40 ms       0.00     100.00     464.11 us     451.04 us     564.02 us
     stres_us34                       26      10.27 ms       0.00     100.00     387.03 us     355.58 us     487.68 us
     stres_hub                         1       1.44 s        0.52      33.13       1.44 s        1.44 s        1.44 s 
       init_us_2                      26      26.71 ms       0.01       0.79       1.00 ms     962.72 us       1.26 ms
        init_us_2:cpu                26      26.50 ms       0.01     100.00     995.50 us     955.05 us       1.25 ms
       calbec                         52      14.11 ms       0.01     100.00     279.77 us      91.14 us     565.92 us
       s_psi_bgrp                     26       9.54 ms       0.00      14.25     344.48 us     327.44 us     527.15 us
        s_psi                        26       8.18 ms       0.00     100.00     291.83 us     275.77 us     480.52 us
       atomic_wfc                     26      24.66 ms       0.01     100.00     908.81 us     865.81 us       1.47 ms
       stres_us31                     26     364.47 us       0.00     100.00      13.61 us      11.37 us      23.41 us
       stres_us32                     26       8.08 ms       0.00     100.00     294.58 us     266.41 us     559.22 us
       stres_us33                     26      12.19 ms       0.00     100.00     464.22 us     449.43 us     553.74 us
       stres_us34                     26       8.51 ms       0.00     100.00     320.66 us     265.23 us     489.17 us
       dprojdepsilon                 234     861.20 ms       0.31      57.86       3.57 ms       3.20 ms       6.31 ms
         calbec                     3978     362.94 ms       0.13     100.00      94.32 us      38.97 us     938.66 us
  davcio                               26       4.72 ms       0.00     100.00     183.54 us     149.45 us     223.56 us
 sirius::finalize                        1      25.37 us       0.00     100.00      25.37 us      25.37 us      25.37 us

=========================================================================================================================
===========================================================================================================
                            #         Total          %     Self %        Median           Min           Max
-----------------------------------------------------------------------------------------------------------
sirius                      1     280.14 s      100.00       0.00     280.14 s      280.14 s      280.14 s 
 PWSCF                     1     280.14 s      100.00     100.00     280.14 s      280.14 s      280.14 s 
 electrons                 1     263.54 s       94.07     100.00     263.54 s      263.54 s      263.54 s 
 fftw                   116k     178.98 s       63.89     100.00       1.51 ms       1.37 ms      21.56 ms
 c_bands                  26     166.60 s       59.47     100.00       6.02 s        5.17 s        9.52 s 
 cegterg                 676     164.82 s       58.83     100.00     226.93 ms     187.81 ms     411.77 ms
 h_psi_bgrp             2589     161.96 s       57.81     100.00      93.40 ms       3.23 ms     133.89 ms
 h_psi                  2589     161.95 s       57.81     100.00      93.40 ms       3.23 ms     133.88 ms
 h_psi:pot              2589     161.41 s       57.62     100.00      93.12 ms       3.17 ms     133.59 ms
 vloc_psi               2589     159.86 s       57.06     100.00      92.28 ms       3.04 ms     132.73 ms
 sum_band                 26      48.70 s       17.38     100.00       1.87 s        1.81 s        1.96 s 
 sum_band:loop            26      34.75 s       12.41     100.00       1.34 s        1.30 s        1.42 s 
 v_xc                     29      20.88 s        7.45     100.00     715.48 ms     681.98 ms     765.00 ms
 v_of_rho                 27      19.84 s        7.08     100.00     727.20 ms     698.44 ms     782.61 ms
 addusdens                26      12.56 s        4.48     100.00     480.89 ms     452.63 ms     510.78 ms
 newd                     27      12.30 s        4.39     100.00     449.00 ms     431.11 ms     520.46 ms
 ions                      1      10.52 s        3.76     100.00      10.52 s       10.52 s       10.52 s 
 fft                     713       9.26 s        3.31     100.00      12.51 ms      11.43 ms      33.50 ms
 stress                    1       8.68 s        3.10     100.00       8.68 s        8.68 s        8.68 s 
 addusd:qvan2            156       8.23 s        2.94     100.00      60.92 ms      29.68 ms      79.57 ms
 init_run                  1       5.79 s        2.07     100.00       5.79 s        5.79 s        5.79 s 
 wfcinit                   1       3.21 s        1.15     100.00       3.21 s        3.21 s        3.21 s 
 wfcinit:wfcrot           26       2.99 s        1.07     100.00     114.92 ms     109.96 ms     126.92 ms
 wfcrot                   26       2.99 s        1.07     100.00     114.91 ms     109.96 ms     126.91 ms
 rotwfck                  26       2.99 s        1.07     100.00     114.89 ms     109.96 ms     126.89 ms
 rotwfck:hpsi             26       2.94 s        1.05     100.00     112.90 ms     107.19 ms     124.99 ms
 addusd:dgemm            156       2.61 s        0.93     100.00      12.87 ms       7.78 ms      37.04 ms
 cdiaghg                2563       2.24 s        0.80     100.00     881.62 us     235.86 us       1.80 ms
 cegterg:diag           2537       2.24 s        0.80     100.00     898.25 us     240.10 us       1.81 ms
 calbec                12016       2.00 s        0.71     100.00      96.46 us       9.21 us       2.97 ms
 forces                    1       1.84 s        0.66     100.00       1.84 s        1.84 s        1.84 s 
 mix_rho                  26       1.68 s        0.60     100.00      64.47 ms     538.05 us      80.13 ms
 init_us_2              1508       1.57 s        0.56     100.00       1.02 ms     851.66 us       2.15 ms
 init_us_2:cpu          1508       1.56 s        0.56     100.00       1.01 ms     846.43 us       2.15 ms
 stres_hub                 1       1.44 s        0.52     100.00       1.44 s        1.44 s        1.44 s 
 hinit0                    1       1.20 s        0.43     100.00       1.20 s        1.20 s        1.20 s 
 interpolate              54     933.31 ms       0.33     100.00      16.94 ms      15.61 ms      20.49 ms
 init_us_1                 1     927.49 ms       0.33     100.00     927.49 ms     927.49 ms     927.49 ms
 sum_band:sym_rho         26     883.63 ms       0.32     100.00      33.62 ms      31.86 ms      37.98 ms
 h_psi:calbec           2589     876.74 ms       0.31     100.00     438.51 us      47.32 us     855.23 us
 dprojdepsilon           234     861.20 ms       0.31     100.00       3.57 ms       3.20 ms       6.31 ms
 potinit                   1     860.82 ms       0.31     100.00     860.82 ms     860.82 ms     860.82 ms
 cegterg:last           1251     853.26 ms       0.30     100.00     356.08 us     198.63 us       2.69 ms
 frc_cc                    1     806.95 ms       0.29     100.00     806.95 ms     806.95 ms     806.95 ms
 sum_band:init_us_2      676     679.46 ms       0.24     100.00     986.45 us     906.17 us       1.44 ms
 cegterg:overlap        1887     666.03 ms       0.24     100.00     310.04 us      71.09 us     980.00 us
 add_vuspsi             2589     651.74 ms       0.23     100.00     322.08 us      31.82 us       1.81 ms
 frc_us                    1     641.75 ms       0.23     100.00     641.75 ms     641.75 ms     641.75 ms
 s_psi_bgrp             2667     624.09 ms       0.22     100.00     288.44 us      34.36 us       1.26 ms
 s_psi                  2667     519.91 ms       0.19     100.00     234.59 us      27.49 us     603.41 us
 cegterg:update         1887     516.31 ms       0.18     100.00     281.96 us      45.23 us     727.84 us
 v_h                      27     457.36 ms       0.16     100.00      16.66 ms      15.47 ms      23.63 ms
 vhpsi                  2589     410.75 ms       0.15     100.00     192.44 us      29.33 us     601.83 us
 force_hub                 1     320.36 ms       0.11     100.00     320.36 ms     320.36 ms     320.36 ms
 sum_band:calbec         676     316.17 ms       0.11     100.00     451.25 us     353.07 us     789.27 us
 cegterg:init            676     270.85 ms       0.10     100.00     370.29 us     320.51 us     886.82 us
 ffts                    106     255.23 ms       0.09     100.00       2.38 ms       2.27 ms       3.38 ms
 new_ns                   26     238.77 ms       0.09     100.00       9.08 ms       7.70 ms      10.14 ms
 dndtau                  312     233.61 ms       0.08     100.00     797.65 us     517.86 us       1.18 ms
 sum_band:buffer         676     172.02 ms       0.06     100.00     255.00 us     151.63 us     475.98 us
 g_psi                  1887     151.00 ms       0.05     100.00      67.39 us       9.73 us     365.26 us
 atomic_wfc              104      92.78 ms       0.03     100.00     896.67 us     719.57 us       1.47 ms
 sum_band:becsum         676      38.88 ms       0.01     100.00      55.02 us      38.07 us     219.70 us
 frc_scc                   1      35.44 ms       0.01     100.00      35.44 ms      35.44 ms      35.44 ms
 frc_lc                    1      27.54 ms       0.01     100.00      27.54 ms      27.54 ms      27.54 ms
 stres_us33               52      24.60 ms       0.01     100.00     464.14 us     449.43 us     564.02 us
 wfcinit:atomic           26      22.17 ms       0.01     100.00     847.39 us     733.32 us     980.22 us
 rotwfck:diag             26      20.60 ms       0.01     100.00     777.45 us     734.73 us       1.21 ms
 dprojdtau               624      20.30 ms       0.01     100.00       1.98 us       1.05 us     174.03 us
 rotwfck:hc               26      18.79 ms       0.01     100.00     668.97 us     624.08 us     973.38 us
 stres_us34               52      18.77 ms       0.01     100.00     369.31 us     265.23 us     489.17 us
 addusd:skk               78      16.79 ms       0.01     100.00     211.77 us     142.89 us     322.90 us
 stres_us32               52      16.47 ms       0.01     100.00     293.95 us     266.41 us     586.19 us
 rotwfck:evc              26      13.12 ms       0.00     100.00     479.91 us     394.80 us       1.05 ms
 init_vloc                 1       8.28 ms       0.00     100.00       8.28 ms       8.28 ms       8.28 ms
 davcio                   26       4.72 ms       0.00     100.00     183.54 us     149.45 us     223.56 us
 diagh                   108       3.79 ms       0.00     100.00      11.01 us       3.27 us     387.42 us
 sum_band:weights         26       3.78 ms       0.00     100.00     106.30 us      99.19 us     491.63 us
 stres_us31               52     960.31 us       0.00     100.00      17.07 us      11.37 us      37.67 us
 sirius::initialize        1     192.13 us       0.00     100.00     192.13 us     192.13 us     192.13 us
 sirius::finalize          1      25.37 us       0.00     100.00      25.37 us      25.37 us      25.37 us

===========================================================================================================
