SIRIUS 7.2.0, git hash: c2189d305d56f71cf42fed50ae31408782bc5ac3
Warning! Compiled in 'debug' mode with assert statements enabled!

     Program PWSCF v.6.7GPU starts on 16Feb2021 at 13:47:18 

     This program is part of the open-source Quantum ESPRESSO suite
     for quantum simulation of materials; please cite
         "P. Giannozzi et al., J. Phys.:Condens. Matter 21 395502 (2009);
         "P. Giannozzi et al., J. Phys.:Condens. Matter 29 465901 (2017);
         "P. Giannozzi et al., J. Chem. Phys. 152 154105 (2020);
          URL http://www.quantum-espresso.org", 
     in publications or presentations arising from this work. More details at
     http://www.quantum-espresso.org/quote

     Parallel version (MPI & OpenMP), running on       8 processor cores
     Number of MPI processes:                 1
     Threads/MPI process:                     8

     MPI processes distributed on     1 nodes
     Reading input from pw.in
Warning: card &CELL ignored
Warning: card  CELL_DYNAMICS='BFGS', ignored
Warning: card / ignored
     Message from routine read_cards :
     DEPRECATED: no units specified in CELL_PARAMETERS card

     Current dimensions of program PWSCF are:
     Max number of different atomic species (ntypx) = 10
     Max number of k-points (npk) =  40000
     Max angular momentum in pseudopotentials (lmaxx) =  3
     file F.pz-n-kjpaw_psl.0.1.UPF: wavefunction(s)  2S 2P renormalized
     Message from routine setup:
     using ibrav=0 with symmetry is DISCOURAGED, use correct ibrav instead

     Subspace diagonalization in iterative solution of the eigenvalue problem:
     a serial algorithm will be used


     G-vector sticks info
     --------------------
     sticks:   dense  smooth     PW     G-vecs:    dense   smooth      PW
     Sum         817     421    121                15353     5521     941

     Using Slab Decomposition



     bravais-lattice index     =            0
     lattice parameter (alat)  =       7.6050  a.u.
     unit-cell volume          =     113.5729 (a.u.)^3
     number of atoms/cell      =            2
     number of atomic types    =            2
     number of electrons       =        10.00
     number of Kohn-Sham states=            9
     kinetic-energy cutoff     =      50.0000  Ry
     charge density cutoff     =     400.0000  Ry
     scf convergence threshold =      1.0E-14
     mixing beta               =       0.7000
     number of iterations used =            8  plain     mixing
     Exchange-correlation= SLA  PZ   NOGX NOGC
                           (   1   1   0   0   0   0   0)

     celldm(1)=   7.605017  celldm(2)=   0.000000  celldm(3)=   0.000000
     celldm(4)=   0.000000  celldm(5)=   0.000000  celldm(6)=   0.000000

     crystal axes: (cart. coord. in units of alat)
               a(1) = (  -0.000000   0.505415   0.505415 )  
               a(2) = (   0.505415  -0.000000   0.505415 )  
               a(3) = (   0.505415   0.505415  -0.000000 )  

     reciprocal axes: (cart. coord. in units 2 pi/alat)
               b(1) = ( -0.989286  0.989286  0.989286 )  
               b(2) = (  0.989286 -0.989286  0.989286 )  
               b(3) = (  0.989286  0.989286 -0.989286 )  


     PseudoPot. # 1 for Li read from file:
     ./Li.pz-s-kjpaw_psl.0.2.1.UPF
     MD5 check sum: 5826e206b66599901f4f6899314079bf
     Pseudo is Projector augmented-wave, Zval =  3.0
     Generated using "atomic" code by A. Dal Corso  v.5.0.99 svn rev. 10869
     Shape of augmentation charge: PSQ
     Using radial grid of 1017 points,  4 beta functions with: 
                l(1) =   0
                l(2) =   0
                l(3) =   1
                l(4) =   1
     Q(r) pseudized with 0 coefficients 


     PseudoPot. # 2 for F  read from file:
     ./F.pz-n-kjpaw_psl.0.1.UPF
     MD5 check sum: 36e8ad1e28b7c2539c782b9503e06cc9
     Pseudo is Projector augmented-wave + core cor, Zval =  7.0
     Generated using "atomic" code by A. Dal Corso  v.5.0.99 svn rev. 10869
     Shape of augmentation charge: PSQ
     Using radial grid of 1105 points,  4 beta functions with: 
                l(1) =   0
                l(2) =   0
                l(3) =   1
                l(4) =   1
     Q(r) pseudized with 0 coefficients 


     atomic species   valence    mass     pseudopotential
        Li             3.00     6.94100     Li( 1.00)
        F              7.00    18.99840     F ( 1.00)

      6 Sym. Ops. (no inversion) found


                                    s                        frac. trans.

      isym =  1     identity                                     

 cryst.   s( 1) = (     1          0          0      )
                  (     0          1          0      )
                  (     0          0          1      )

 cart.    s( 1) = (  1.0000000  0.0000000 -0.0000000 )
                  (  0.0000000  1.0000000 -0.0000000 )
                  (  0.0000000 -0.0000000  1.0000000 )


      isym =  2     120 deg rotation - cart. axis [-1,-1,-1]     

 cryst.   s( 2) = (     0          0          1      )
                  (     1          0          0      )
                  (     0          1          0      )

 cart.    s( 2) = ( -0.0000000  1.0000000  0.0000000 )
                  ( -0.0000000  0.0000000  1.0000000 )
                  (  1.0000000  0.0000000 -0.0000000 )


      isym =  3     120 deg rotation - cart. axis [1,1,1]        

 cryst.   s( 3) = (     0          1          0      )
                  (     0          0          1      )
                  (     1          0          0      )

 cart.    s( 3) = (  0.0000000 -0.0000000  1.0000000 )
                  (  1.0000000 -0.0000000  0.0000000 )
                  ( -0.0000000  1.0000000  0.0000000 )


      isym =  4     inv. 180 deg rotation - cart. axis [1,-1,0]  

 cryst.   s( 4) = (     0          1          0      )
                  (     1          0          0      )
                  (     0          0          1      )

 cart.    s( 4) = (  0.0000000  1.0000000 -0.0000000 )
                  (  1.0000000  0.0000000 -0.0000000 )
                  ( -0.0000000  0.0000000  1.0000000 )


      isym =  5     inv. 180 deg rotation - cart. axis [-1,0,1]  

 cryst.   s( 5) = (     0          0          1      )
                  (     0          1          0      )
                  (     1          0          0      )

 cart.    s( 5) = ( -0.0000000  0.0000000  1.0000000 )
                  ( -0.0000000  1.0000000  0.0000000 )
                  (  1.0000000 -0.0000000  0.0000000 )


      isym =  6     inv. 180 deg rotation - cart. axis [0,1,-1]  

 cryst.   s( 6) = (     1          0          0      )
                  (     0          0          1      )
                  (     0          1          0      )

 cart.    s( 6) = (  1.0000000 -0.0000000  0.0000000 )
                  (  0.0000000 -0.0000000  1.0000000 )
                  (  0.0000000  1.0000000 -0.0000000 )


   Cartesian axes

     site n.     atom                  positions (alat units)
         1           Li  tau(   1) = (   0.0000000   0.0000000   0.0000000  )
         2           F   tau(   2) = (   0.5100000   0.5100000   0.5100000  )

   Crystallographic axes

     site n.     atom                  positions (cryst. coord.)
         1           Li  tau(   1) = (  0.0000000  0.0000000  0.0000000  )
         2           F   tau(   2) = (  0.5045360  0.5045360  0.5045360  )

     number of k points=     6  Gaussian smearing, width (Ry)=  0.0200
                       cart. coord. in units 2pi/alat
        k(    1) = (   0.0000000   0.0000000   0.0000000), wk =   0.0740741
        k(    2) = (   0.3297621   0.3297621  -0.3297621), wk =   0.4444444
        k(    3) = (   0.6595242   0.0000000  -0.0000000), wk =   0.4444444
        k(    4) = (  -0.0000000  -0.6595242   0.6595242), wk =   0.4444444
        k(    5) = (   0.3297621   0.3297621   0.3297621), wk =   0.1481481
        k(    6) = (   0.6595242  -0.0000000   0.6595242), wk =   0.4444444

                       cryst. coord.
        k(    1) = (   0.0000000   0.0000000   0.0000000), wk =   0.0740741
        k(    2) = (  -0.0000000  -0.0000000   0.3333333), wk =   0.4444444
        k(    3) = (  -0.0000000   0.3333333   0.3333333), wk =   0.4444444
        k(    4) = (   0.0000000   0.3333333  -0.3333333), wk =   0.4444444
        k(    5) = (   0.3333333   0.3333333   0.3333333), wk =   0.1481481
        k(    6) = (   0.3333333   0.6666667   0.3333333), wk =   0.4444444

     Dense  grid:    15353 G-vectors     FFT dimensions: (  36,  36,  36)

     Smooth grid:     5521 G-vectors     FFT dimensions: (  25,  25,  25)

     Dynamical RAM for                 wfc:       0.09 MB

     Dynamical RAM for     wfc (w. buffer):       0.65 MB

     Dynamical RAM for           str. fact:       0.47 MB

     Dynamical RAM for           local pot:       0.00 MB

     Dynamical RAM for          nlocal pot:       0.17 MB

     Dynamical RAM for                qrad:       0.92 MB

     Dynamical RAM for          rho,v,vnew:       1.77 MB

     Dynamical RAM for               rhoin:       0.59 MB

     Dynamical RAM for            rho*nmix:       3.75 MB

     Dynamical RAM for           G-vectors:       0.92 MB

     Dynamical RAM for          h,s,v(r/c):       0.01 MB

     Dynamical RAM for          <psi|beta>:       0.00 MB

     Dynamical RAM for                 psi:       0.19 MB

     Dynamical RAM for                hpsi:       0.19 MB

     Dynamical RAM for                spsi:       0.19 MB

     Dynamical RAM for      wfcinit/wfcrot:       0.19 MB

     Dynamical RAM for           addusdens:      10.31 MB

     Dynamical RAM for          addusforce:      10.43 MB

     Dynamical RAM for         addusstress:      11.71 MB

     Estimated static dynamical RAM per process >       7.97 MB

     Estimated max dynamical RAM per process >      23.43 MB

     Check: negative core charge=   -0.000072

     Initial potential from superposition of free atoms

     starting charge    9.99533, renormalised to   10.00000
     Starting wfcs are    6 randomized atomic wfcs +    3 random wfcs
     Checking if some PAW data can be deallocated... 

     total cpu time spent up to now is        0.6 secs

     Self-consistent Calculation

     iteration #  1     ecut=    50.00 Ry     beta= 0.70
     Davidson diagonalization with overlap
     ethr =  1.00E-02,  avg # of iterations =  5.3

     total cpu time spent up to now is        0.8 secs

     total energy              =     -73.30490292 Ry
     Harris-Foulkes estimate   =     -73.38778570 Ry
     estimated scf accuracy    <       0.11227586 Ry
 
     Band energy sum           =      -9.86985005 Ry

     iteration #  2     ecut=    50.00 Ry     beta= 0.70
     Davidson diagonalization with overlap
     ethr =  1.12E-03,  avg # of iterations =  2.3

     total cpu time spent up to now is        0.9 secs

     total energy              =     -73.33285041 Ry
     Harris-Foulkes estimate   =     -73.38258000 Ry
     estimated scf accuracy    <       0.09763962 Ry
 
     Band energy sum           =      -8.26461082 Ry

     iteration #  3     ecut=    50.00 Ry     beta= 0.70
     Davidson diagonalization with overlap
     ethr =  9.76E-04,  avg # of iterations =  2.0

     total cpu time spent up to now is        1.1 secs

     total energy              =     -73.35305467 Ry
     Harris-Foulkes estimate   =     -73.35318800 Ry
     estimated scf accuracy    <       0.00054283 Ry
 
     Band energy sum           =      -9.03071212 Ry

     iteration #  4     ecut=    50.00 Ry     beta= 0.70
     Davidson diagonalization with overlap
     ethr =  5.43E-06,  avg # of iterations =  5.2

     total cpu time spent up to now is        1.2 secs

     total energy              =     -73.35325844 Ry
     Harris-Foulkes estimate   =     -73.35326584 Ry
     estimated scf accuracy    <       0.00001192 Ry
 
     Band energy sum           =      -8.97629301 Ry

     iteration #  5     ecut=    50.00 Ry     beta= 0.70
     Davidson diagonalization with overlap
     ethr =  1.19E-07,  avg # of iterations =  7.3

     total cpu time spent up to now is        1.4 secs

     total energy              =     -73.35326216 Ry
     Harris-Foulkes estimate   =     -73.35326241 Ry
     estimated scf accuracy    <       0.00000113 Ry
 
     Band energy sum           =      -8.96896644 Ry

     iteration #  6     ecut=    50.00 Ry     beta= 0.70
     Davidson diagonalization with overlap
     ethr =  1.13E-08,  avg # of iterations =  2.8

     total cpu time spent up to now is        1.5 secs

     total energy              =     -73.35326224 Ry
     Harris-Foulkes estimate   =     -73.35326225 Ry
     estimated scf accuracy    <       0.00000002 Ry
 
     Band energy sum           =      -8.96909524 Ry

     iteration #  7     ecut=    50.00 Ry     beta= 0.70
     Davidson diagonalization with overlap
     ethr =  1.52E-10,  avg # of iterations =  5.5

     total cpu time spent up to now is        1.7 secs

     total energy              =     -73.35326225 Ry
     Harris-Foulkes estimate   =     -73.35326225 Ry
     estimated scf accuracy    <          4.7E-09 Ry
 
     Band energy sum           =      -8.96965210 Ry

     iteration #  8     ecut=    50.00 Ry     beta= 0.70
     Davidson diagonalization with overlap
     ethr =  4.69E-11,  avg # of iterations =  2.5

     total cpu time spent up to now is        1.8 secs

     total energy              =     -73.35326225 Ry
     Harris-Foulkes estimate   =     -73.35326225 Ry
     estimated scf accuracy    <          2.5E-10 Ry
 
     Band energy sum           =      -8.96951192 Ry

     iteration #  9     ecut=    50.00 Ry     beta= 0.70
     Davidson diagonalization with overlap
     ethr =  2.49E-12,  avg # of iterations =  5.2

     total cpu time spent up to now is        2.0 secs

     total energy              =     -73.35326225 Ry
     Harris-Foulkes estimate   =     -73.35326225 Ry
     estimated scf accuracy    <          3.7E-12 Ry
 
     Band energy sum           =      -8.96954443 Ry

     iteration # 10     ecut=    50.00 Ry     beta= 0.70
     Davidson diagonalization with overlap
     ethr =  1.00E-13,  avg # of iterations =  3.7

     total cpu time spent up to now is        2.1 secs

     total energy              =     -73.35326225 Ry
     Harris-Foulkes estimate   =     -73.35326225 Ry
     estimated scf accuracy    <          4.7E-13 Ry
 
     Band energy sum           =      -8.96954846 Ry

     iteration # 11     ecut=    50.00 Ry     beta= 0.70
     Davidson diagonalization with overlap
     ethr =  1.00E-13,  avg # of iterations =  1.0

     total cpu time spent up to now is        2.2 secs

     total energy              =     -73.35326225 Ry
     Harris-Foulkes estimate   =     -73.35326225 Ry
     estimated scf accuracy    <          1.2E-14 Ry
 
     Band energy sum           =      -8.96955068 Ry

     iteration # 12     ecut=    50.00 Ry     beta= 0.70
     Davidson diagonalization with overlap
     ethr =  1.00E-13,  avg # of iterations =  1.0

     total cpu time spent up to now is        2.3 secs

     End of self-consistent calculation

          k = 0.0000 0.0000 0.0000 (   645 PWs)   bands (ev):

   -39.5723 -19.2513   0.2525   0.2525   0.2544   8.9408  23.2097  23.2663
    23.2663

     occupation numbers 
     1.0000   1.0000   1.0000   1.0000   1.0000   0.0000   0.0000   0.0000
     0.0000

          k = 0.3298 0.3298-0.3298 (   664 PWs)   bands (ev):

   -39.5270 -18.9442  -1.6747   0.0838   0.0852  10.3908  16.7086  19.1486
    19.1530

     occupation numbers 
     1.0000   1.0000   1.0000   1.0000   1.0000   0.0000   0.0000   0.0000
     0.0000

          k = 0.6595 0.0000-0.0000 (   680 PWs)   bands (ev):

   -39.5145 -18.7742  -1.9352  -0.4981  -0.4960  12.5143  17.1135  18.3618
    19.7539

     occupation numbers 
     1.0000   1.0000   1.0000   1.0000   1.0000   0.0000   0.0000   0.0000
     0.0000

          k =-0.0000-0.6595 0.6595 (   680 PWs)   bands (ev):

   -39.4994 -18.6572  -1.8871  -1.5090  -0.3064  13.2331  14.6271  18.5232
    19.0194

     occupation numbers 
     1.0000   1.0000   1.0000   1.0000   1.0000   0.0000   0.0000   0.0000
     0.0000

          k = 0.3298 0.3298 0.3298 (   664 PWs)   bands (ev):

   -39.5270 -18.9437  -1.6750   0.0841   0.0841  10.3920  16.7106  19.1445
    19.1445

     occupation numbers 
     1.0000   1.0000   1.0000   1.0000   1.0000   0.0000   0.0000   0.0000
     0.0000

          k = 0.6595-0.0000 0.6595 (   680 PWs)   bands (ev):

   -39.4994 -18.6569  -1.8871  -1.5082  -0.3078  13.2275  14.6274  18.6436
    18.8995

     occupation numbers 
     1.0000   1.0000   1.0000   1.0000   1.0000   0.0000   0.0000   0.0000
     0.0000

     the Fermi energy is     4.6497 ev

!    total energy              =     -73.35326225 Ry

     total all-electron energy =      -213.804412 Ry
     Harris-Foulkes estimate   =     -73.35326225 Ry
     estimated scf accuracy    <          1.1E-16 Ry
     smearing contrib. (-TS)   =      -0.00000000 Ry
     internal energy E=F+TS    =     -73.35326225 Ry

     The total energy is F=E-TS. E is the sum of the following terms:
     one-electron contribution =     -27.58146059 Ry
     hartree contribution      =      17.80497422 Ry
     xc contribution           =     -13.98308572 Ry
     ewald contribution        =     -40.54296705 Ry
     one-center paw contrib.   =      -9.05072312 Ry
      -> PAW hartree energy AE =      49.79693708 Ry
      -> PAW hartree energy PS =     -49.52734434 Ry
      -> PAW xc energy AE      =     -22.81803831 Ry
      -> PAW xc energy PS      =      13.49772245 Ry
      -> total E_H with PAW    =      18.07456697 Ry
      -> total E_XC with PAW   =     -23.30340157 Ry
 
     Band energy sum           =      -8.96955030 Ry

     convergence has been achieved in  12 iterations

     evp_work_count     :       1464
     num_loc_op_applied :       1922

     Forces acting on atoms (cartesian axes, Ry/au):

     atom    1 type  1   force =     0.00074240    0.00074240    0.00074240
     atom    2 type  2   force =    -0.00074240   -0.00074240   -0.00074240
     The non-local contrib.  to forces
     atom    1 type  1   force =     0.00395455    0.00395455    0.00395455
     atom    2 type  2   force =     0.00794864    0.00794864    0.00794864
     The ionic contribution  to forces
     atom    1 type  1   force =     0.05395847    0.05395847    0.05395847
     atom    2 type  2   force =    -0.05395847   -0.05395847   -0.05395847
     The local contribution  to forces
     atom    1 type  1   force =    -0.05717045   -0.05717045   -0.05717045
     atom    2 type  2   force =     0.04534116    0.04534116    0.04534116
     The core correction contribution to forces
     atom    1 type  1   force =     0.00000000    0.00000000    0.00000000
     atom    2 type  2   force =    -0.00007358   -0.00007358   -0.00007358
     The Hubbard contrib.    to forces
     atom    1 type  1   force =     0.00000000    0.00000000    0.00000000
     atom    2 type  2   force =     0.00000000    0.00000000    0.00000000
     The SCF correction term to forces
     atom    1 type  1   force =    -0.00000000   -0.00000000   -0.00000000
     atom    2 type  2   force =     0.00000000    0.00000000    0.00000000

     Total force =     0.001819     Total SCF correction =     0.000000


     Computing stress (Cartesian axis) and pressure

          total   stress  (Ry/bohr**3)                   (kbar)     P=      -83.74
  -0.00056929  -0.00000006  -0.00000006          -83.74       -0.01       -0.01
  -0.00000006  -0.00056929  -0.00000006           -0.01      -83.74       -0.01
  -0.00000006  -0.00000006  -0.00056929           -0.01       -0.01      -83.74

     kinetic stress (kbar)  21479.33      0.13      0.13
                                0.13  21479.33      0.13
                                0.13      0.13  21479.33

     local   stress (kbar) -11950.53     10.76     10.76
                               10.76 -11950.53     10.76
                               10.76     10.76 -11950.53

     nonloc. stress (kbar)   5697.03      0.05      0.05
                                0.05   5697.03      0.05
                                0.05      0.05   5697.03

     hartree stress (kbar)   7687.29     -3.79     -3.79
                               -3.79   7687.29     -3.79
                               -3.79     -3.79   7687.29

     exc-cor stress (kbar)  -3794.89      0.00      0.00
                                0.00  -3794.89      0.00
                                0.00      0.00  -3794.89

     corecor stress (kbar)  -1697.57     -0.00     -0.00
                               -0.00  -1697.57     -0.00
                               -0.00     -0.00  -1697.57

     ewald   stress (kbar) -17504.41     -7.16     -7.16
                               -7.16 -17504.41     -7.16
                               -7.16     -7.16 -17504.41

     hubbard stress (kbar)      0.00      0.00      0.00
                                0.00      0.00      0.00
                                0.00      0.00      0.00

     DFT-D   stress (kbar)      0.00      0.00      0.00
                                0.00      0.00      0.00
                                0.00      0.00      0.00

     XDM     stress (kbar)      0.00      0.00      0.00
                                0.00      0.00      0.00
                                0.00      0.00      0.00

     dft-nl  stress (kbar)      0.00      0.00      0.00
                                0.00      0.00      0.00
                                0.00      0.00      0.00

     TS-vdW  stress (kbar)      0.00      0.00      0.00
                                0.00      0.00      0.00
                                0.00      0.00      0.00



     Writing output data file ./LiF_.save/

     init_run     :      0.54s CPU      0.52s WALL (       1 calls)
     electrons    :      2.08s CPU      1.71s WALL (       1 calls)
     forces       :      0.05s CPU      0.03s WALL (       1 calls)
     stress       :      0.23s CPU      0.09s WALL (       1 calls)

     Called by init_run:
     wfcinit      :      0.03s CPU      0.03s WALL (       1 calls)
     wfcinit:atom :      0.00s CPU      0.00s WALL (       6 calls)
     wfcinit:wfcr :      0.03s CPU      0.03s WALL (       6 calls)
     potinit      :      0.03s CPU      0.01s WALL (       1 calls)
     hinit0       :      0.46s CPU      0.46s WALL (       1 calls)

     Called by electrons:
     c_bands      :      1.07s CPU      1.04s WALL (      12 calls)
     sum_band     :      0.51s CPU      0.34s WALL (      12 calls)
     v_of_rho     :      0.06s CPU      0.04s WALL (      13 calls)
     v_h          :      0.01s CPU      0.02s WALL (      13 calls)
     v_xc         :      0.05s CPU      0.02s WALL (      15 calls)
     newd         :      0.29s CPU      0.18s WALL (      13 calls)
     PAW_pot      :      0.15s CPU      0.08s WALL (      13 calls)
     mix_rho      :      0.02s CPU      0.04s WALL (      12 calls)

     Called by c_bands:
     init_us_2    :      0.02s CPU      0.01s WALL (     162 calls)
     cegterg      :      1.05s CPU      1.03s WALL (      72 calls)

     Called by sum_band:
     sum_band:wei :      0.00s CPU      0.00s WALL (      12 calls)
     sum_band:loo :      0.18s CPU      0.18s WALL (      12 calls)
     sum_band:buf :      0.00s CPU      0.00s WALL (      72 calls)
     sum_band:ini :      0.01s CPU      0.01s WALL (      72 calls)
     sum_band:cal :      0.01s CPU      0.01s WALL (      72 calls)
     sum_band:bec :      0.00s CPU      0.01s WALL (      72 calls)
     addusdens    :      0.30s CPU      0.14s WALL (      12 calls)
     addusd:skk   :      0.00s CPU      0.00s WALL (      24 calls)
     addusd:dgemm :      0.04s CPU      0.01s WALL (      24 calls)
     addusd:qvan2 :      0.24s CPU      0.10s WALL (      24 calls)

     Called by *egterg:
     cdiaghg      :      0.03s CPU      0.03s WALL (     335 calls)
     cegterg:over :      0.02s CPU      0.02s WALL (     263 calls)
     cegterg:upda :      0.03s CPU      0.02s WALL (     263 calls)
     cegterg:last :      0.04s CPU      0.02s WALL (     171 calls)
     h_psi        :      0.90s CPU      0.90s WALL (     341 calls)
     s_psi        :      0.02s CPU      0.01s WALL (     341 calls)
     g_psi        :      0.01s CPU      0.01s WALL (     263 calls)

     Called by h_psi:
     h_psi:calbec :      0.02s CPU      0.02s WALL (     341 calls)
     vloc_psi     :      0.85s CPU      0.86s WALL (     341 calls)
     add_vuspsi   :      0.02s CPU      0.01s WALL (     341 calls)

     General routines
     calbec       :      0.02s CPU      0.02s WALL (     443 calls)
     fft          :      0.06s CPU      0.06s WALL (      84 calls)
     ffts         :      0.01s CPU      0.01s WALL (      25 calls)
     fftw         :      0.72s CPU      0.71s WALL (    4492 calls)
     interpolate  :      0.01s CPU      0.01s WALL (      13 calls)

     Parallel routines

     PAW routines
     PAW_pot      :      0.15s CPU      0.08s WALL (      13 calls)
     PAW_symme    :      0.00s CPU      0.00s WALL (      25 calls)

     PWSCF        :      3.03s CPU      2.48s WALL


   This run was terminated on:  13:47:20  16Feb2021            

=------------------------------------------------------------------------------=
   JOB DONE.
=------------------------------------------------------------------------------=
