
     Program PWSCF v.6.6 starts on 23Oct2020 at 15:14:12 

     This program is part of the open-source Quantum ESPRESSO suite
     for quantum simulation of materials; please cite
         "P. Giannozzi et al., J. Phys.:Condens. Matter 21 395502 (2009);
         "P. Giannozzi et al., J. Phys.:Condens. Matter 29 465901 (2017);
          URL http://www.quantum-espresso.org", 
     in publications or presentations arising from this work. More details at
     http://www.quantum-espresso.org/quote

     Parallel version (MPI & OpenMP), running on       3 processor cores
     Number of MPI processes:                 1
     Threads/MPI process:                     3

     MPI processes distributed on     1 nodes
     Reading input from pw.in
     Message from routine read_cards :
     DEPRECATED: no units specified in CELL_PARAMETERS card

     Current dimensions of program PWSCF are:
     Max number of different atomic species (ntypx) = 10
     Max number of k-points (npk) =  40000
     Max angular momentum in pseudopotentials (lmaxx) =  3
     Message from routine cell_base_init:
     DEPRECATED: use true lattice parameter, not A to a.u. conversion factor
     file O.pbesol-n-kjpaw_psl.0.1.UPF: wavefunction(s)  2P renormalized

     Subspace diagonalization in iterative solution of the eigenvalue problem:
     a serial algorithm will be used

     Message from routine setup:
     using ibrav=0 with symmetry is DISCOURAGED, use correct ibrav instead

     G-vector sticks info
     --------------------
     sticks:   dense  smooth     PW     G-vecs:    dense   smooth      PW
     Sum        1651     989    277                71415    33211    4903



     bravais-lattice index     =            0
     lattice parameter (alat)  =       1.0000  a.u.
     unit-cell volume          =    1495.3464 (a.u.)^3
     number of atoms/cell      =           20
     number of atomic types    =            4
     number of electrons       =       188.00
     number of Kohn-Sham states=          113
     kinetic-energy cutoff     =      30.0000  Ry
     charge density cutoff     =     200.0000  Ry
     convergence threshold     =      1.0E-11
     mixing beta               =       0.8000
     number of iterations used =            8  local-TF  mixing
     Exchange-correlation=  SLA  PW   PSX  PSC
                           (   1   4  10   8   0   0   0)

     celldm(1)=   1.000000  celldm(2)=   0.000000  celldm(3)=   0.000000
     celldm(4)=   0.000000  celldm(5)=   0.000000  celldm(6)=   0.000000

     crystal axes: (cart. coord. in units of alat)
               a(1) = (  10.226253   0.000000   0.000000 )  
               a(2) = (   0.000000  10.159735   0.000000 )  
               a(3) = (   0.000000   0.000000  14.392721 )  

     reciprocal axes: (cart. coord. in units 2 pi/alat)
               b(1) = (  0.097788  0.000000  0.000000 )  
               b(2) = (  0.000000  0.098428  0.000000 )  
               b(3) = (  0.000000  0.000000  0.069480 )  


     PseudoPot. # 1 for Ni read from file:
     ./ni_pbesol_v1.4.uspp.F.UPF
     MD5 check sum: de937c0c8ae4b350e69c02b76d8a83cb
     Pseudo is Ultrasoft + core correction, Zval = 18.0
     Generated by new atomic code, or converted to UPF format
     Using radial grid of  865 points,  6 beta functions with: 
                l(1) =   0
                l(2) =   0
                l(3) =   1
                l(4) =   1
                l(5) =   2
                l(6) =   2
     Q(r) pseudized with 10 coefficients,  rinner =    0.980   0.980   0.980
                                                       0.980   0.980

     PseudoPot. # 2 for Ni read from file:
     ./ni_pbesol_v1.4.uspp.F.UPF
     MD5 check sum: de937c0c8ae4b350e69c02b76d8a83cb
     Pseudo is Ultrasoft + core correction, Zval = 18.0
     Generated by new atomic code, or converted to UPF format
     Using radial grid of  865 points,  6 beta functions with: 
                l(1) =   0
                l(2) =   0
                l(3) =   1
                l(4) =   1
                l(5) =   2
                l(6) =   2
     Q(r) pseudized with 10 coefficients,  rinner =    0.980   0.980   0.980
                                                       0.980   0.980

     PseudoPot. # 3 for O  read from file:
     ./O.pbesol-n-kjpaw_psl.0.1.UPF
     MD5 check sum: 126339daddaa87477ab44acfa0b5aa00
     Pseudo is Projector augmented-wave + core cor, Zval =  6.0
     Generated using "atomic" code by A. Dal Corso  v.6.0 svn rev. 13079
     Shape of augmentation charge: BESSEL
     Using radial grid of 1095 points,  4 beta functions with: 
                l(1) =   0
                l(2) =   0
                l(3) =   1
                l(4) =   1
     Q(r) pseudized with 0 coefficients 


     PseudoPot. # 4 for Pr read from file:
     ./Pr.pbesol_ps.uspp.UPF
     MD5 check sum: cc9aa16e86ea05bc431addcb85b10a97
     Pseudo is Ultrasoft + core correction, Zval = 11.0
     Generated by new atomic code, or converted to UPF format
     Using radial grid of  925 points,  6 beta functions with: 
                l(1) =   0
                l(2) =   0
                l(3) =   1
                l(4) =   1
                l(5) =   2
                l(6) =   2
     Q(r) pseudized with  8 coefficients,  rinner =    1.200   1.200   1.200
                                                       1.200   1.200

     atomic species   valence    mass     pseudopotential
        N1u           18.00    58.69300     Ni( 1.00)
        N1d           18.00    58.69300     Ni( 1.00)
        O              6.00    16.00000     O ( 1.00)
        Pr            11.00   140.90800     Pr( 1.00)

     Starting magnetic structure 
     atomic species   magnetization
        N1u          1.000
        N1d         -1.000
        O            0.000
        Pr           0.000


     Simplified LDA+U calculation (l_max = 2) with parameters (eV):
     atomic species    L          U    alpha       J0     beta
        N1u            2    10.0337   0.0000   0.0000   0.0000
        N1d            2    10.0337   0.0000   0.0000   0.0000



      4 Sym. Ops., with inversion, found ( 2 have fractional translation)



   Cartesian axes

     site n.     atom                  positions (alat units)
         1           Pr  tau(   1) = (  10.1700085   0.3098719   3.5981803  )
         2           Pr  tau(   2) = (   5.1693709   5.3897392   3.5981803  )
         3           Pr  tau(   3) = (   0.0562444   9.8498627  10.7945408  )
         4           Pr  tau(   4) = (   5.0568821   4.7699954  10.7945408  )
         5           N1u tau(   5) = (   5.1131265   0.0000000   0.0000000  )
         6           N1u tau(   6) = (   0.0000000   5.0798673   7.1963605  )
         7           N1d tau(   7) = (   5.1131265   0.0000000   7.1963605  )
         8           N1d tau(   8) = (   0.0000000   5.0798673   0.0000000  )
         9           O   tau(   9) = (   0.6964078   5.0138290   3.5981803  )
        10           O   tau(  10) = (   4.4167186  10.0936963   3.5981803  )
        11           O   tau(  11) = (   9.5298451   5.1459056  10.7945408  )
        12           O   tau(  12) = (   5.8095343   0.0660383  10.7945408  )
        13           O   tau(  13) = (   7.3526758   2.8589493   0.5123809  )
        14           O   tau(  14) = (   7.9867035   7.9388166   6.6839797  )
        15           O   tau(  15) = (   2.8735771   7.3007853   7.7087414  )
        16           O   tau(  16) = (   2.2395494   2.2209180  13.8803402  )
        17           O   tau(  17) = (   2.8735771   7.3007853  13.8803402  )
        18           O   tau(  18) = (   2.2395494   2.2209180   7.7087414  )
        19           O   tau(  19) = (   7.3526758   2.8589493   6.6839797  )
        20           O   tau(  20) = (   7.9867035   7.9388166   0.5123809  )

     number of k points=    10  Gaussian smearing, width (Ry)=  0.0100
                       cart. coord. in units 2pi/alat
        k(    1) = (   0.0000000   0.0000000   0.0000000), wk =   0.0370370
        k(    2) = (   0.0000000   0.0000000   0.0231599), wk =   0.0740741
        k(    3) = (   0.0000000   0.0328093   0.0000000), wk =   0.0740741
        k(    4) = (   0.0000000   0.0328093   0.0231599), wk =   0.1481481
        k(    5) = (   0.0325958   0.0000000   0.0000000), wk =   0.0740741
        k(    6) = (   0.0325958   0.0000000   0.0231599), wk =   0.0740741
        k(    7) = (   0.0325958   0.0328093   0.0000000), wk =   0.1481481
        k(    8) = (   0.0325958   0.0328093   0.0231599), wk =   0.1481481
        k(    9) = (  -0.0325958   0.0000000   0.0231599), wk =   0.0740741
        k(   10) = (  -0.0325958  -0.0328093   0.0231599), wk =   0.1481481

     Dense  grid:    71415 G-vectors     FFT dimensions: (  48,  48,  72)

     Smooth grid:    33211 G-vectors     FFT dimensions: (  36,  36,  54)

     Estimated max dynamical RAM per process >     512.93 MB

     Check: negative core charge=   -0.000014
     Generating pointlists ...
     new r_m :   1.5120 (alat units)  1.5120 (a.u.) for type    1
     new r_m :   1.5120 (alat units)  1.5120 (a.u.) for type    2
     new r_m :   1.5120 (alat units)  1.5120 (a.u.) for type    3
     new r_m :   1.8516 (alat units)  1.8516 (a.u.) for type    4

     Initial potential from superposition of free atoms

     starting charge  171.99982, renormalised to  188.00000
     Number of +U iterations with fixed ns =  0
     Starting occupations:
 --- enter write_ns ---
 LDA+U parameters:
U( 1)     = 10.03370000
U( 2)     = 10.03370000
atom    5   Tr[ns(na)] (up, down, total) =   5.00000  3.00000  8.00000
   spin  1
    eigenvalues: 
  1.000  1.000  1.000  1.000  1.000
    eigenvectors:
  1.000  0.000  0.000  0.000  0.000
  0.000  1.000  0.000  0.000  0.000
  0.000  0.000  1.000  0.000  0.000
  0.000  0.000  0.000  1.000  0.000
  0.000  0.000  0.000  0.000  1.000
    occupations:
  1.000  0.000  0.000  0.000  0.000
  0.000  1.000  0.000  0.000  0.000
  0.000  0.000  1.000  0.000  0.000
  0.000  0.000  0.000  1.000  0.000
  0.000  0.000  0.000  0.000  1.000
   spin  2
    eigenvalues: 
  0.600  0.600  0.600  0.600  0.600
    eigenvectors:
  1.000  0.000  0.000  0.000  0.000
  0.000  1.000  0.000  0.000  0.000
  0.000  0.000  1.000  0.000  0.000
  0.000  0.000  0.000  1.000  0.000
  0.000  0.000  0.000  0.000  1.000
    occupations:
  0.600  0.000  0.000  0.000  0.000
  0.000  0.600  0.000  0.000  0.000
  0.000  0.000  0.600  0.000  0.000
  0.000  0.000  0.000  0.600  0.000
  0.000  0.000  0.000  0.000  0.600
atomic mag. moment =   2.00000
atom    6   Tr[ns(na)] (up, down, total) =   5.00000  3.00000  8.00000
   spin  1
    eigenvalues: 
  1.000  1.000  1.000  1.000  1.000
    eigenvectors:
  1.000  0.000  0.000  0.000  0.000
  0.000  1.000  0.000  0.000  0.000
  0.000  0.000  1.000  0.000  0.000
  0.000  0.000  0.000  1.000  0.000
  0.000  0.000  0.000  0.000  1.000
    occupations:
  1.000  0.000  0.000  0.000  0.000
  0.000  1.000  0.000  0.000  0.000
  0.000  0.000  1.000  0.000  0.000
  0.000  0.000  0.000  1.000  0.000
  0.000  0.000  0.000  0.000  1.000
   spin  2
    eigenvalues: 
  0.600  0.600  0.600  0.600  0.600
    eigenvectors:
  1.000  0.000  0.000  0.000  0.000
  0.000  1.000  0.000  0.000  0.000
  0.000  0.000  1.000  0.000  0.000
  0.000  0.000  0.000  1.000  0.000
  0.000  0.000  0.000  0.000  1.000
    occupations:
  0.600  0.000  0.000  0.000  0.000
  0.000  0.600  0.000  0.000  0.000
  0.000  0.000  0.600  0.000  0.000
  0.000  0.000  0.000  0.600  0.000
  0.000  0.000  0.000  0.000  0.600
atomic mag. moment =   2.00000
atom    7   Tr[ns(na)] (up, down, total) =   3.00000  5.00000  8.00000
   spin  1
    eigenvalues: 
  0.600  0.600  0.600  0.600  0.600
    eigenvectors:
  1.000  0.000  0.000  0.000  0.000
  0.000  1.000  0.000  0.000  0.000
  0.000  0.000  1.000  0.000  0.000
  0.000  0.000  0.000  1.000  0.000
  0.000  0.000  0.000  0.000  1.000
    occupations:
  0.600  0.000  0.000  0.000  0.000
  0.000  0.600  0.000  0.000  0.000
  0.000  0.000  0.600  0.000  0.000
  0.000  0.000  0.000  0.600  0.000
  0.000  0.000  0.000  0.000  0.600
   spin  2
    eigenvalues: 
  1.000  1.000  1.000  1.000  1.000
    eigenvectors:
  1.000  0.000  0.000  0.000  0.000
  0.000  1.000  0.000  0.000  0.000
  0.000  0.000  1.000  0.000  0.000
  0.000  0.000  0.000  1.000  0.000
  0.000  0.000  0.000  0.000  1.000
    occupations:
  1.000  0.000  0.000  0.000  0.000
  0.000  1.000  0.000  0.000  0.000
  0.000  0.000  1.000  0.000  0.000
  0.000  0.000  0.000  1.000  0.000
  0.000  0.000  0.000  0.000  1.000
atomic mag. moment =  -2.00000
atom    8   Tr[ns(na)] (up, down, total) =   3.00000  5.00000  8.00000
   spin  1
    eigenvalues: 
  0.600  0.600  0.600  0.600  0.600
    eigenvectors:
  1.000  0.000  0.000  0.000  0.000
  0.000  1.000  0.000  0.000  0.000
  0.000  0.000  1.000  0.000  0.000
  0.000  0.000  0.000  1.000  0.000
  0.000  0.000  0.000  0.000  1.000
    occupations:
  0.600  0.000  0.000  0.000  0.000
  0.000  0.600  0.000  0.000  0.000
  0.000  0.000  0.600  0.000  0.000
  0.000  0.000  0.000  0.600  0.000
  0.000  0.000  0.000  0.000  0.600
   spin  2
    eigenvalues: 
  1.000  1.000  1.000  1.000  1.000
    eigenvectors:
  1.000  0.000  0.000  0.000  0.000
  0.000  1.000  0.000  0.000  0.000
  0.000  0.000  1.000  0.000  0.000
  0.000  0.000  0.000  1.000  0.000
  0.000  0.000  0.000  0.000  1.000
    occupations:
  1.000  0.000  0.000  0.000  0.000
  0.000  1.000  0.000  0.000  0.000
  0.000  0.000  1.000  0.000  0.000
  0.000  0.000  0.000  1.000  0.000
  0.000  0.000  0.000  0.000  1.000
atomic mag. moment =  -2.00000
N of occupied +U levels =   32.000000
 --- exit write_ns ---
 Atomic wfc used for LDA+U Projector are NOT orthogonalized
     Starting wfcs are  152 randomized atomic wfcs
     Checking if some PAW data can be deallocated... 

     total cpu time spent up to now is        7.9 secs

     Self-consistent Calculation

     iteration #  1     ecut=    30.00 Ry     beta= 0.80
     Davidson diagonalization with overlap
     ethr =  1.00E-02,  avg # of iterations =  2.3
 --- enter write_ns ---
 LDA+U parameters:
U( 1)     = 10.03370000
U( 2)     = 10.03370000
atom    5   Tr[ns(na)] (up, down, total) =   1.55390  0.18425  1.73816
   spin  1
    eigenvalues: 
  0.184  0.186  0.320  0.424  0.440
    eigenvectors:
  0.566  0.227  0.113  0.086  0.008
  0.137  0.057  0.222  0.511  0.073
  0.050  0.037  0.279  0.010  0.623
  0.049  0.057  0.266  0.335  0.293
  0.198  0.622  0.119  0.058  0.003
    occupations:
  0.222 -0.078  0.001  0.004  0.003
 -0.078  0.355 -0.038 -0.029 -0.022
  0.001 -0.038  0.384 -0.058  0.042
  0.004 -0.029 -0.058  0.376  0.050
  0.003 -0.022  0.042  0.050  0.216
   spin  2
    eigenvalues: 
  0.021  0.022  0.023  0.059  0.059
    eigenvectors:
  0.000  0.094  0.001  0.209  0.697
  0.000  0.905  0.001  0.026  0.068
  0.408  0.000  0.558  0.021  0.013
  0.508  0.001  0.440  0.038  0.012
  0.083  0.000  0.000  0.706  0.210
    occupations:
  0.056  0.011  0.001  0.000 -0.000
  0.011  0.025  0.000 -0.000  0.001
  0.001  0.000  0.023  0.001 -0.007
  0.000 -0.000  0.001  0.024 -0.008
 -0.000  0.001 -0.007 -0.008  0.056
atomic mag. moment =   1.36965
atom    6   Tr[ns(na)] (up, down, total) =   1.55390  0.18425  1.73816
   spin  1
    eigenvalues: 
  0.184  0.186  0.320  0.424  0.440
    eigenvectors:
  0.566  0.227  0.113  0.086  0.008
  0.137  0.057  0.222  0.511  0.073
  0.050  0.037  0.279  0.010  0.623
  0.049  0.057  0.266  0.335  0.293
  0.198  0.622  0.119  0.058  0.003
    occupations:
  0.222 -0.078 -0.001  0.004 -0.003
 -0.078  0.355  0.038 -0.029  0.022
 -0.001  0.038  0.384  0.058  0.042
  0.004 -0.029  0.058  0.376 -0.050
 -0.003  0.022  0.042 -0.050  0.216
   spin  2
    eigenvalues: 
  0.021  0.022  0.023  0.059  0.059
    eigenvectors:
  0.000  0.094  0.001  0.209  0.697
  0.000  0.905  0.001  0.026  0.068
  0.408  0.000  0.558  0.021  0.013
  0.508  0.001  0.440  0.038  0.012
  0.083  0.000  0.000  0.706  0.210
    occupations:
  0.056  0.011 -0.001  0.000  0.000
  0.011  0.025 -0.000 -0.000 -0.001
 -0.001 -0.000  0.023 -0.001 -0.007
  0.000 -0.000 -0.001  0.024  0.008
  0.000 -0.001 -0.007  0.008  0.056
atomic mag. moment =   1.36965
atom    7   Tr[ns(na)] (up, down, total) =   0.18425  1.55494  1.73920
   spin  1
    eigenvalues: 
  0.021  0.022  0.023  0.059  0.059
    eigenvectors:
  0.000  0.094  0.001  0.273  0.632
  0.000  0.905  0.001  0.033  0.061
  0.405  0.000  0.561  0.019  0.015
  0.511  0.001  0.438  0.034  0.016
  0.083  0.000  0.000  0.641  0.275
    occupations:
  0.056 -0.011 -0.001  0.000 -0.000
 -0.011  0.025  0.000  0.000 -0.001
 -0.001  0.000  0.023 -0.001  0.007
  0.000  0.000 -0.001  0.024 -0.008
 -0.000 -0.001  0.007 -0.008  0.056
   spin  2
    eigenvalues: 
  0.184  0.186  0.321  0.424  0.440
    eigenvectors:
  0.559  0.234  0.112  0.088  0.007
  0.135  0.059  0.220  0.520  0.065
  0.051  0.036  0.278  0.013  0.622
  0.050  0.056  0.270  0.321  0.303
  0.205  0.615  0.120  0.058  0.003
    occupations:
  0.223  0.078 -0.001  0.004  0.003
  0.078  0.356 -0.038  0.029  0.022
 -0.001 -0.038  0.385  0.058 -0.042
  0.004  0.029  0.058  0.376  0.050
  0.003  0.022 -0.042  0.050  0.216
atomic mag. moment =  -1.37069
atom    8   Tr[ns(na)] (up, down, total) =   0.18425  1.55494  1.73920
   spin  1
    eigenvalues: 
  0.021  0.022  0.023  0.059  0.059
    eigenvectors:
  0.000  0.094  0.001  0.273  0.632
  0.000  0.905  0.001  0.033  0.061
  0.405  0.000  0.561  0.019  0.015
  0.511  0.001  0.438  0.034  0.016
  0.083  0.000  0.000  0.641  0.275
    occupations:
  0.056 -0.011  0.001  0.000  0.000
 -0.011  0.025 -0.000  0.000  0.001
  0.001 -0.000  0.023  0.001  0.007
  0.000  0.000  0.001  0.024  0.008
  0.000  0.001  0.007  0.008  0.056
   spin  2
    eigenvalues: 
  0.184  0.186  0.321  0.424  0.440
    eigenvectors:
  0.559  0.234  0.112  0.088  0.007
  0.135  0.059  0.220  0.520  0.065
  0.051  0.036  0.278  0.013  0.622
  0.050  0.056  0.270  0.321  0.303
  0.205  0.615  0.120  0.058  0.003
    occupations:
  0.223  0.078  0.001  0.004 -0.003
  0.078  0.356  0.038  0.029 -0.022
  0.001  0.038  0.385 -0.058 -0.042
  0.004  0.029 -0.058  0.376 -0.050
 -0.003 -0.022 -0.042 -0.050  0.216
atomic mag. moment =  -1.37069
N of occupied +U levels =    6.954706
 --- exit write_ns ---

     total cpu time spent up to now is       18.4 secs

     total energy              =   -2224.75473441 Ry
     estimated scf accuracy    <     270.40621082 Ry

     total magnetization       =    -0.00 Bohr mag/cell
     absolute magnetization    =     7.70 Bohr mag/cell

     iteration #  2     ecut=    30.00 Ry     beta= 0.80
     Davidson diagonalization with overlap
     ethr =  1.00E-02,  avg # of iterations =  4.0

     total cpu time spent up to now is       31.9 secs

     total energy              =   -2268.17662500 Ry
     estimated scf accuracy    <      64.98224217 Ry

     total magnetization       =    -0.00 Bohr mag/cell
     absolute magnetization    =     1.49 Bohr mag/cell

     iteration #  3     ecut=    30.00 Ry     beta= 0.80
     Davidson diagonalization with overlap
     ethr =  1.00E-02,  avg # of iterations =  2.0

     total cpu time spent up to now is       42.0 secs

     total energy              =   -2274.39966746 Ry
     estimated scf accuracy    <       2.44288197 Ry

     total magnetization       =    -0.01 Bohr mag/cell
     absolute magnetization    =     4.94 Bohr mag/cell

     iteration #  4     ecut=    30.00 Ry     beta= 0.80
     Davidson diagonalization with overlap
     ethr =  1.30E-03,  avg # of iterations =  2.3

     total cpu time spent up to now is       50.8 secs

     total energy              =   -2274.38699643 Ry
     estimated scf accuracy    <       1.50749863 Ry

     total magnetization       =    -0.01 Bohr mag/cell
     absolute magnetization    =     3.72 Bohr mag/cell

     iteration #  5     ecut=    30.00 Ry     beta= 0.80
     Davidson diagonalization with overlap
     ethr =  8.02E-04,  avg # of iterations =  3.2

     total cpu time spent up to now is       59.9 secs

     total energy              =   -2274.59090258 Ry
     estimated scf accuracy    <       0.29275778 Ry

     total magnetization       =     0.03 Bohr mag/cell
     absolute magnetization    =     4.21 Bohr mag/cell

     iteration #  6     ecut=    30.00 Ry     beta= 0.80
     Davidson diagonalization with overlap
     ethr =  1.56E-04,  avg # of iterations =  6.3

     total cpu time spent up to now is       70.4 secs

     total energy              =   -2274.62357508 Ry
     estimated scf accuracy    <       0.07759120 Ry

     total magnetization       =    -0.01 Bohr mag/cell
     absolute magnetization    =     4.58 Bohr mag/cell

     iteration #  7     ecut=    30.00 Ry     beta= 0.80
     Davidson diagonalization with overlap
     ethr =  4.13E-05,  avg # of iterations =  5.0

     total cpu time spent up to now is       79.9 secs

     total energy              =   -2274.63553548 Ry
     estimated scf accuracy    <       0.02115965 Ry

     total magnetization       =     0.05 Bohr mag/cell
     absolute magnetization    =     4.96 Bohr mag/cell

     iteration #  8     ecut=    30.00 Ry     beta= 0.80
     Davidson diagonalization with overlap
     ethr =  1.13E-05,  avg # of iterations =  7.1

     total cpu time spent up to now is       90.5 secs

     total energy              =   -2274.64255593 Ry
     estimated scf accuracy    <       0.00956514 Ry

     total magnetization       =    -0.02 Bohr mag/cell
     absolute magnetization    =     5.34 Bohr mag/cell

     iteration #  9     ecut=    30.00 Ry     beta= 0.80
     Davidson diagonalization with overlap
     ethr =  5.09E-06,  avg # of iterations =  3.8

     total cpu time spent up to now is       99.9 secs

     total energy              =   -2274.64636274 Ry
     estimated scf accuracy    <       0.00249323 Ry

     total magnetization       =     0.03 Bohr mag/cell
     absolute magnetization    =     5.67 Bohr mag/cell

     iteration # 10     ecut=    30.00 Ry     beta= 0.80
     Davidson diagonalization with overlap
     c_bands:  1 eigenvalues not converged
     ethr =  1.33E-06,  avg # of iterations =  4.7

     total cpu time spent up to now is      110.6 secs

     total energy              =   -2274.64836502 Ry
     estimated scf accuracy    <       0.00021656 Ry

     total magnetization       =     0.01 Bohr mag/cell
     absolute magnetization    =     5.88 Bohr mag/cell

     iteration # 11     ecut=    30.00 Ry     beta= 0.80
     Davidson diagonalization with overlap
     ethr =  1.15E-07,  avg # of iterations =  2.3

     total cpu time spent up to now is      119.9 secs

     total energy              =   -2274.64840254 Ry
     estimated scf accuracy    <       0.00005205 Ry

     total magnetization       =     0.02 Bohr mag/cell
     absolute magnetization    =     5.91 Bohr mag/cell

     iteration # 12     ecut=    30.00 Ry     beta= 0.80
     Davidson diagonalization with overlap
     ethr =  2.77E-08,  avg # of iterations =  2.4

     total cpu time spent up to now is      129.7 secs

     total energy              =   -2274.64843638 Ry
     estimated scf accuracy    <       0.00000369 Ry

     total magnetization       =     0.02 Bohr mag/cell
     absolute magnetization    =     5.93 Bohr mag/cell

     iteration # 13     ecut=    30.00 Ry     beta= 0.80
     Davidson diagonalization with overlap
     ethr =  1.96E-09,  avg # of iterations =  1.9

     total cpu time spent up to now is      138.4 secs

     total energy              =   -2274.64843823 Ry
     estimated scf accuracy    <       0.00000216 Ry

     total magnetization       =     0.02 Bohr mag/cell
     absolute magnetization    =     5.93 Bohr mag/cell

     iteration # 14     ecut=    30.00 Ry     beta= 0.80
     Davidson diagonalization with overlap
     ethr =  1.15E-09,  avg # of iterations =  2.0

     total cpu time spent up to now is      147.4 secs

     total energy              =   -2274.64844135 Ry
     estimated scf accuracy    <       0.00000082 Ry

     total magnetization       =     0.02 Bohr mag/cell
     absolute magnetization    =     5.93 Bohr mag/cell

     iteration # 15     ecut=    30.00 Ry     beta= 0.80
     Davidson diagonalization with overlap
     ethr =  4.37E-10,  avg # of iterations =  2.1

     total cpu time spent up to now is      157.0 secs

     total energy              =   -2274.64844428 Ry
     estimated scf accuracy    <       0.00000030 Ry

     total magnetization       =     0.02 Bohr mag/cell
     absolute magnetization    =     5.93 Bohr mag/cell

     iteration # 16     ecut=    30.00 Ry     beta= 0.80
     Davidson diagonalization with overlap
     ethr =  1.62E-10,  avg # of iterations =  1.9

     total cpu time spent up to now is      165.8 secs

     total energy              =   -2274.64844446 Ry
     estimated scf accuracy    <       0.00000020 Ry

     total magnetization       =     0.02 Bohr mag/cell
     absolute magnetization    =     5.93 Bohr mag/cell

     iteration # 17     ecut=    30.00 Ry     beta= 0.80
     Davidson diagonalization with overlap
     ethr =  1.05E-10,  avg # of iterations =  2.1

     total cpu time spent up to now is      174.8 secs

     total energy              =   -2274.64844437 Ry
     estimated scf accuracy    <       0.00000008 Ry

     total magnetization       =     0.02 Bohr mag/cell
     absolute magnetization    =     5.93 Bohr mag/cell

     iteration # 18     ecut=    30.00 Ry     beta= 0.80
     Davidson diagonalization with overlap
     ethr =  4.19E-11,  avg # of iterations =  2.5

     total cpu time spent up to now is      185.0 secs

     total energy              =   -2274.64844551 Ry
     estimated scf accuracy    <       0.00000002 Ry

     total magnetization       =     0.02 Bohr mag/cell
     absolute magnetization    =     5.93 Bohr mag/cell

     iteration # 19     ecut=    30.00 Ry     beta= 0.80
     Davidson diagonalization with overlap
     ethr =  1.06E-11,  avg # of iterations =  2.0

     total cpu time spent up to now is      194.5 secs

     total energy              =   -2274.64844561 Ry
     estimated scf accuracy    <          6.3E-09 Ry

     total magnetization       =     0.02 Bohr mag/cell
     absolute magnetization    =     5.93 Bohr mag/cell

     iteration # 20     ecut=    30.00 Ry     beta= 0.80
     Davidson diagonalization with overlap
     ethr =  3.37E-12,  avg # of iterations =  2.0

     total cpu time spent up to now is      204.0 secs

     total energy              =   -2274.64844563 Ry
     estimated scf accuracy    <          2.6E-09 Ry

     total magnetization       =     0.01 Bohr mag/cell
     absolute magnetization    =     5.93 Bohr mag/cell

     iteration # 21     ecut=    30.00 Ry     beta= 0.80
     Davidson diagonalization with overlap
     ethr =  1.40E-12,  avg # of iterations =  2.0

     total cpu time spent up to now is      213.4 secs

     total energy              =   -2274.64844564 Ry
     estimated scf accuracy    <          1.7E-09 Ry

     total magnetization       =     0.01 Bohr mag/cell
     absolute magnetization    =     5.93 Bohr mag/cell

     iteration # 22     ecut=    30.00 Ry     beta= 0.80
     Davidson diagonalization with overlap
     ethr =  9.07E-13,  avg # of iterations =  2.0

     total cpu time spent up to now is      222.9 secs

     total energy              =   -2274.64844564 Ry
     estimated scf accuracy    <          1.1E-09 Ry

     total magnetization       =     0.01 Bohr mag/cell
     absolute magnetization    =     5.93 Bohr mag/cell

     iteration # 23     ecut=    30.00 Ry     beta= 0.80
     Davidson diagonalization with overlap
     ethr =  6.09E-13,  avg # of iterations =  2.0

     total cpu time spent up to now is      232.2 secs

     total energy              =   -2274.64844564 Ry
     estimated scf accuracy    <          9.2E-10 Ry

     total magnetization       =     0.01 Bohr mag/cell
     absolute magnetization    =     5.93 Bohr mag/cell

     iteration # 24     ecut=    30.00 Ry     beta= 0.80
     Davidson diagonalization with overlap
     ethr =  4.88E-13,  avg # of iterations =  2.0

     total cpu time spent up to now is      242.0 secs

     total energy              =   -2274.64844565 Ry
     estimated scf accuracy    <          7.9E-10 Ry

     total magnetization       =     0.01 Bohr mag/cell
     absolute magnetization    =     5.93 Bohr mag/cell

     iteration # 25     ecut=    30.00 Ry     beta= 0.80
     Davidson diagonalization with overlap
     ethr =  4.22E-13,  avg # of iterations =  2.2

     total cpu time spent up to now is      252.3 secs

     total energy              =   -2274.64844564 Ry
     estimated scf accuracy    <          7.2E-10 Ry

     total magnetization       =     0.01 Bohr mag/cell
     absolute magnetization    =     5.93 Bohr mag/cell

     iteration # 26     ecut=    30.00 Ry     beta= 0.80
     Davidson diagonalization with overlap
     ethr =  3.82E-13,  avg # of iterations =  3.1

     total cpu time spent up to now is      263.8 secs

     total energy              =   -2274.64844564 Ry
     estimated scf accuracy    <          5.5E-10 Ry

     total magnetization       =     0.01 Bohr mag/cell
     absolute magnetization    =     5.93 Bohr mag/cell

     iteration # 27     ecut=    30.00 Ry     beta= 0.80
     Davidson diagonalization with overlap
     ethr =  2.91E-13,  avg # of iterations =  3.2

     total cpu time spent up to now is      275.9 secs

     total energy              =   -2274.64844563 Ry
     estimated scf accuracy    <          4.4E-10 Ry

     total magnetization       =     0.01 Bohr mag/cell
     absolute magnetization    =     5.93 Bohr mag/cell

     iteration # 28     ecut=    30.00 Ry     beta= 0.80
     Davidson diagonalization with overlap
     ethr =  2.34E-13,  avg # of iterations =  3.5

     total cpu time spent up to now is      288.3 secs

     total energy              =   -2274.64844565 Ry
     estimated scf accuracy    <          2.9E-10 Ry

     total magnetization       =     0.01 Bohr mag/cell
     absolute magnetization    =     5.93 Bohr mag/cell

     iteration # 29     ecut=    30.00 Ry     beta= 0.80
     Davidson diagonalization with overlap
     ethr =  1.55E-13,  avg # of iterations =  3.9

     total cpu time spent up to now is      300.7 secs

     total energy              =   -2274.64844565 Ry
     estimated scf accuracy    <          2.0E-10 Ry

     total magnetization       =     0.01 Bohr mag/cell
     absolute magnetization    =     5.93 Bohr mag/cell

     iteration # 30     ecut=    30.00 Ry     beta= 0.80
     Davidson diagonalization with overlap
     ethr =  1.09E-13,  avg # of iterations =  4.2

     total cpu time spent up to now is      313.5 secs

     total energy              =   -2274.64844565 Ry
     estimated scf accuracy    <          1.5E-10 Ry

     total magnetization       =     0.00 Bohr mag/cell
     absolute magnetization    =     5.93 Bohr mag/cell

     iteration # 31     ecut=    30.00 Ry     beta= 0.80
     Davidson diagonalization with overlap
     ethr =  1.00E-13,  avg # of iterations =  4.6

     total cpu time spent up to now is      326.5 secs

     total energy              =   -2274.64844566 Ry
     estimated scf accuracy    <          7.1E-11 Ry

     total magnetization       =     0.00 Bohr mag/cell
     absolute magnetization    =     5.93 Bohr mag/cell

     iteration # 32     ecut=    30.00 Ry     beta= 0.80
     Davidson diagonalization with overlap
     ethr =  1.00E-13,  avg # of iterations =  3.3

     total cpu time spent up to now is      338.7 secs

     total energy              =   -2274.64844567 Ry
     estimated scf accuracy    <          3.3E-11 Ry

     total magnetization       =     0.00 Bohr mag/cell
     absolute magnetization    =     5.93 Bohr mag/cell

     iteration # 33     ecut=    30.00 Ry     beta= 0.80
     Davidson diagonalization with overlap
     ethr =  1.00E-13,  avg # of iterations =  2.5

     Magnetic moment per site:
     atom:    1    charge:    6.5473    magn:   -0.0000    constr:    0.0000
     atom:    2    charge:    6.5473    magn:   -0.0000    constr:    0.0000
     atom:    3    charge:    6.5473    magn:   -0.0000    constr:    0.0000
     atom:    4    charge:    6.5473    magn:   -0.0000    constr:    0.0000
     atom:    5    charge:   15.3351    magn:    1.3146    constr:    0.0000
     atom:    6    charge:   15.3351    magn:    1.3146    constr:    0.0000
     atom:    7    charge:   15.3351    magn:   -1.3145    constr:    0.0000
     atom:    8    charge:   15.3351    magn:   -1.3145    constr:    0.0000
     atom:    9    charge:    5.3111    magn:    0.0000    constr:    0.0000
     atom:   10    charge:    5.3111    magn:    0.0000    constr:    0.0000
     atom:   11    charge:    5.3111    magn:    0.0000    constr:    0.0000
     atom:   12    charge:    5.3111    magn:    0.0000    constr:    0.0000
     atom:   13    charge:    5.3112    magn:    0.0148    constr:    0.0000
     atom:   14    charge:    5.3112    magn:    0.0148    constr:    0.0000
     atom:   15    charge:    5.3112    magn:   -0.0148    constr:    0.0000
     atom:   16    charge:    5.3112    magn:   -0.0148    constr:    0.0000
     atom:   17    charge:    5.3112    magn:    0.0148    constr:    0.0000
     atom:   18    charge:    5.3112    magn:    0.0148    constr:    0.0000
     atom:   19    charge:    5.3112    magn:   -0.0148    constr:    0.0000
     atom:   20    charge:    5.3112    magn:   -0.0148    constr:    0.0000

     total cpu time spent up to now is      349.3 secs

     End of self-consistent calculation
 --- enter write_ns ---
 LDA+U parameters:
U( 1)     = 10.03370000
U( 2)     = 10.03370000
atom    5   Tr[ns(na)] (up, down, total) =   4.62313  3.42330  8.04643
   spin  1
    eigenvalues: 
  0.878  0.892  0.951  0.951  0.952
    eigenvectors:
  0.665  0.243  0.008  0.078  0.005
  0.069  0.021  0.050  0.849  0.011
  0.004  0.027  0.806  0.068  0.095
  0.009  0.043  0.131  0.000  0.816
  0.253  0.665  0.006  0.004  0.073
    occupations:
  0.888 -0.020 -0.001 -0.000 -0.006
 -0.020  0.945 -0.000  0.000 -0.003
 -0.001 -0.000  0.949 -0.002  0.010
 -0.000  0.000 -0.002  0.948  0.014
 -0.006 -0.003  0.010  0.014  0.893
   spin  2
    eigenvalues: 
  0.282  0.296  0.948  0.949  0.949
    eigenvectors:
  0.066  0.843  0.049  0.041  0.001
  0.004  0.086  0.415  0.491  0.004
  0.030  0.001  0.522  0.443  0.004
  0.042  0.002  0.001  0.005  0.951
  0.858  0.069  0.013  0.021  0.039
    occupations:
  0.355 -0.187 -0.016 -0.010  0.001
 -0.187  0.889 -0.004 -0.001 -0.009
 -0.016 -0.004  0.928 -0.024  0.111
 -0.010 -0.001 -0.024  0.920  0.133
  0.001 -0.009  0.111  0.133  0.332
atomic mag. moment =   1.19984
atom    6   Tr[ns(na)] (up, down, total) =   4.62313  3.42330  8.04643
   spin  1
    eigenvalues: 
  0.878  0.892  0.951  0.951  0.952
    eigenvectors:
  0.665  0.243  0.008  0.078  0.005
  0.069  0.021  0.050  0.849  0.011
  0.004  0.027  0.806  0.068  0.095
  0.009  0.043  0.131  0.000  0.816
  0.253  0.665  0.006  0.004  0.073
    occupations:
  0.888 -0.020  0.001 -0.000  0.006
 -0.020  0.945  0.000  0.000  0.003
  0.001  0.000  0.949  0.002  0.010
 -0.000  0.000  0.002  0.948 -0.014
  0.006  0.003  0.010 -0.014  0.893
   spin  2
    eigenvalues: 
  0.282  0.296  0.948  0.949  0.949
    eigenvectors:
  0.066  0.843  0.049  0.041  0.001
  0.004  0.086  0.415  0.491  0.004
  0.030  0.001  0.522  0.443  0.004
  0.042  0.002  0.001  0.005  0.951
  0.858  0.069  0.013  0.021  0.039
    occupations:
  0.355 -0.187  0.016 -0.010 -0.001
 -0.187  0.889  0.004 -0.001  0.009
  0.016  0.004  0.928  0.024  0.111
 -0.010 -0.001  0.024  0.920 -0.133
 -0.001  0.009  0.111 -0.133  0.332
atomic mag. moment =   1.19984
atom    7   Tr[ns(na)] (up, down, total) =   3.42336  4.62309  8.04646
   spin  1
    eigenvalues: 
  0.282  0.296  0.948  0.949  0.949
    eigenvectors:
  0.066  0.843  0.049  0.041  0.001
  0.004  0.086  0.414  0.491  0.004
  0.030  0.001  0.523  0.443  0.004
  0.042  0.002  0.001  0.004  0.951
  0.858  0.069  0.013  0.021  0.039
    occupations:
  0.355  0.187  0.016 -0.010  0.001
  0.187  0.889 -0.004  0.001  0.009
  0.016 -0.004  0.928  0.024 -0.111
 -0.010  0.001  0.024  0.920  0.133
  0.001  0.009 -0.111  0.133  0.332
   spin  2
    eigenvalues: 
  0.878  0.892  0.951  0.951  0.952
    eigenvectors:
  0.665  0.243  0.008  0.078  0.005
  0.069  0.021  0.050  0.849  0.011
  0.004  0.027  0.806  0.068  0.095
  0.009  0.043  0.131  0.000  0.816
  0.252  0.665  0.006  0.004  0.073
    occupations:
  0.888  0.020  0.001 -0.000 -0.006
  0.020  0.945 -0.000 -0.000  0.003
  0.001 -0.000  0.949  0.002 -0.010
 -0.000 -0.000  0.002  0.948  0.014
 -0.006  0.003 -0.010  0.014  0.893
atomic mag. moment =  -1.19973
atom    8   Tr[ns(na)] (up, down, total) =   3.42336  4.62309  8.04646
   spin  1
    eigenvalues: 
  0.282  0.296  0.948  0.949  0.949
    eigenvectors:
  0.066  0.843  0.049  0.041  0.001
  0.004  0.086  0.414  0.491  0.004
  0.030  0.001  0.523  0.443  0.004
  0.042  0.002  0.001  0.004  0.951
  0.858  0.069  0.013  0.021  0.039
    occupations:
  0.355  0.187 -0.016 -0.010 -0.001
  0.187  0.889  0.004  0.001 -0.009
 -0.016  0.004  0.928 -0.024 -0.111
 -0.010  0.001 -0.024  0.920 -0.133
 -0.001 -0.009 -0.111 -0.133  0.332
   spin  2
    eigenvalues: 
  0.878  0.892  0.951  0.951  0.952
    eigenvectors:
  0.665  0.243  0.008  0.078  0.005
  0.069  0.021  0.050  0.849  0.011
  0.004  0.027  0.806  0.068  0.095
  0.009  0.043  0.131  0.000  0.816
  0.252  0.665  0.006  0.004  0.073
    occupations:
  0.888  0.020 -0.001 -0.000  0.006
  0.020  0.945  0.000 -0.000 -0.003
 -0.001  0.000  0.949 -0.002 -0.010
 -0.000 -0.000 -0.002  0.948 -0.014
  0.006 -0.003 -0.010 -0.014  0.893
atomic mag. moment =  -1.19973
N of occupied +U levels =   32.185774
 --- exit write_ns ---

 ------ SPIN UP ------------


          k = 0.0000 0.0000 0.0000 (  4153 PWs)   bands (ev):

   -91.5827 -91.5806 -89.7367 -89.7343 -52.0453 -52.0377 -52.0210 -52.0171
   -52.0141 -52.0076 -50.2560 -50.2540 -50.2483 -50.2436 -50.2052 -50.2030
   -21.8612 -21.8122 -21.7678 -21.7245  -6.7737  -6.1361  -5.9195  -5.8878
    -5.5799  -5.5488  -5.0990  -5.0817  -5.0693  -4.9739  -4.7384  -4.6531
    -3.7803  -3.7473  -3.6802  -3.5883  -3.5840  -3.3691  -3.3391  -3.2327
    -3.0671  -2.4841  -2.2827  -2.2411   4.7486   5.0812   5.3691   5.4735
     5.4758   5.6106   5.6355   5.6671   5.6997   5.7244   5.8686   6.3430
     6.6418   6.8591   6.9757   6.9763   6.9868   7.4841   7.9662   8.0757
     8.0930   8.3820   8.4912   9.0754   9.1488   9.4580   9.9136   9.9571
    10.4052  10.4138  10.4165  10.7092  10.7169  10.7294  10.8563  10.9175
    10.9202  10.9729  11.0256  11.0367  11.0896  11.1007  11.3907  11.4169
    11.4834  11.5616  11.6384  11.7345  11.8662  11.9428  12.0255  12.0850
    15.7375  16.3973  16.5400  16.6362  16.6482  16.9285  17.5142  17.6037
    17.8405  18.1133  18.4322  18.5473  18.8180  18.8306  18.8438  18.8617
    19.0447

          k = 0.0000 0.0000 0.0232 (  4137 PWs)   bands (ev):

   -91.5810 -91.5808 -89.7350 -89.7345 -52.0406 -52.0404 -52.0190 -52.0146
   -52.0082 -52.0073 -50.2539 -50.2523 -50.2456 -50.2428 -50.2022 -50.2015
   -21.8490 -21.8245 -21.7571 -21.7354  -6.5807  -6.1398  -6.0260  -5.8293
    -5.7440  -5.6338  -5.1435  -5.1384  -5.0098  -4.9174  -4.8328  -4.6551
    -3.7694  -3.7533  -3.7135  -3.6381  -3.4645  -3.3808  -3.0734  -3.0515
    -2.7976  -2.6842  -2.5515  -2.3738   4.9394   5.2503   5.3040   5.4318
     5.4843   5.5929   5.6798   5.6875   5.7074   5.7301   6.1574   6.4160
     6.6733   6.8132   6.8223   6.9405   6.9683   7.0649   8.0636   8.1491
     8.2045   8.3290   8.4102   8.5743   9.2827   9.7994   9.9612  10.1664
    10.3729  10.4291  10.4742  10.6011  10.6349  10.6725  10.8033  10.8285
    10.8968  10.9253  10.9780  11.0391  11.1370  11.1706  11.3251  11.3713
    11.3978  11.5348  11.5861  11.6998  11.9253  12.0171  12.1747  12.2826
    15.8189  16.1505  16.6141  16.6398  16.8213  17.2088  17.6064  17.7425
    18.0244  18.3021  18.4014  18.6899  18.7039  18.8150  18.8741  18.9851
    19.2575

          k = 0.0000 0.0328 0.0000 (  4156 PWs)   bands (ev):

   -91.5818 -91.5808 -89.7358 -89.7348 -52.0422 -52.0412 -52.0204 -52.0160
   -52.0120 -52.0072 -50.2547 -50.2545 -50.2465 -50.2441 -50.2052 -50.2020
   -21.8358 -21.7917 -21.7891 -21.7479  -6.4744  -6.2464  -6.2418  -5.8250
    -5.7074  -5.5336  -5.4032  -5.3755  -5.2172  -5.0582  -4.9585  -4.7054
    -3.6152  -3.4736  -3.4292  -3.4059  -3.2038  -3.0713  -3.0346  -2.9985
    -2.9258  -2.6120  -2.4857  -2.3898   4.9669   5.2982   5.3445   5.3915
     5.4482   5.5416   5.5613   5.6645   5.7123   5.7180   6.3978   6.4331
     6.4666   6.4861   6.6738   6.7990   6.8058   7.3519   7.9848   8.0071
     8.3361   8.4466   8.5655   8.7928   9.3723   9.8270   9.9008  10.0011
    10.0953  10.2582  10.3016  10.3546  10.5198  10.5711  10.5727  10.6853
    10.7305  10.7988  10.9088  10.9179  11.0066  11.0247  11.1054  11.2226
    11.3656  11.4681  11.5148  11.5967  12.0236  12.0992  12.3140  12.3524
    15.9644  16.2061  16.2085  16.3373  17.2292  17.2557  18.2205  18.2992
    18.3834  18.4624  18.5631  18.8429  19.0448  19.1155  19.1439  19.3395
    19.4820

          k = 0.0000 0.0328 0.0232 (  4134 PWs)   bands (ev):

   -91.5808 -91.5801 -89.7349 -89.7341 -52.0420 -52.0419 -52.0155 -52.0138
   -52.0077 -52.0035 -50.2531 -50.2519 -50.2434 -50.2425 -50.2026 -50.1995
   -21.8249 -21.8028 -21.7788 -21.7582  -6.3465  -6.2173  -6.1428  -5.8915
    -5.7927  -5.6166  -5.3400  -5.2975  -5.2385  -5.1791  -5.0886  -4.8542
    -3.5553  -3.4499  -3.3004  -3.2473  -3.2332  -3.0536  -3.0212  -2.8459
    -2.8172  -2.6974  -2.6538  -2.5191   5.1560   5.3092   5.3432   5.4184
     5.4764   5.5190   5.6714   5.7039   5.7325   5.7543   6.3608   6.4467
     6.4751   6.5888   6.6456   6.6520   6.7046   7.1954   7.6513   7.7454
     8.5422   8.6129   8.7067   8.8508   9.5458   9.9057   9.9880  10.0808
    10.1157  10.2022  10.2992  10.3523  10.4205  10.4816  10.5861  10.6372
    10.6725  10.7350  10.8853  10.9066  11.0393  11.0577  11.1144  11.2251
    11.3243  11.4209  11.4733  11.5197  12.2880  12.3106  12.4019  12.4461
    15.9575  16.0996  16.2138  16.2310  17.4664  17.5280  18.0147  18.0763
    18.2755  18.4058  18.5174  18.7441  18.8531  19.0290  19.0611  19.1823
    19.5222

          k = 0.0326 0.0000 0.0000 (  4148 PWs)   bands (ev):

   -91.5814 -91.5806 -89.7353 -89.7346 -52.0441 -52.0402 -52.0199 -52.0144
   -52.0089 -52.0065 -50.2556 -50.2518 -50.2475 -50.2426 -50.2037 -50.2009
   -21.8364 -21.7953 -21.7855 -21.7472  -6.5060  -6.4032  -6.2902  -5.8427
    -5.7788  -5.5340  -5.5041  -5.2811  -4.8841  -4.8452  -4.6840  -4.6202
    -3.7462  -3.7245  -3.7114  -3.6695  -3.2288  -3.0639  -2.9163  -2.9015
    -2.8896  -2.4950  -2.4577  -2.3767   4.9536   5.3237   5.3811   5.4164
     5.4501   5.4972   5.5365   5.6602   5.6958   5.7311   6.2954   6.3177
     6.4792   6.5909   6.6728   6.7513   6.8159   7.3077   7.7328   7.8170
     8.3957   8.6374   8.7148   8.7680   9.3957   9.5643   9.7815   9.8818
    10.0775  10.2716  10.3195  10.3786  10.5016  10.5318  10.5391  10.7506
    10.7722  10.8658  10.8940  10.9710  11.0892  11.1916  11.2688  11.2735
    11.4198  11.5375  11.5621  11.5995  11.9830  12.1251  12.4425  12.5742
    15.9452  16.2645  16.3027  16.3618  17.0510  17.4198  18.1053  18.2104
    18.2797  18.3420  18.5353  18.8713  18.8828  19.0162  19.2254  19.4963
    19.7818

          k = 0.0326 0.0000 0.0232 (  4147 PWs)   bands (ev):

   -91.5813 -91.5807 -89.7353 -89.7347 -52.0464 -52.0429 -52.0147 -52.0138
   -52.0112 -52.0043 -50.2559 -50.2534 -50.2438 -50.2426 -50.2055 -50.2005
   -21.8254 -21.8036 -21.7780 -21.7577  -6.3820  -6.2871  -6.2770  -6.0311
    -5.8049  -5.5476  -5.4075  -5.3457  -4.9474  -4.9090  -4.7731  -4.7457
    -3.7480  -3.6496  -3.5959  -3.5854  -3.1067  -3.0977  -2.8935  -2.8462
    -2.7795  -2.6196  -2.5734  -2.4079   5.1478   5.3538   5.3552   5.4119
     5.4531   5.4549   5.6559   5.7012   5.7261   5.7392   6.2398   6.3509
     6.5065   6.5286   6.5856   6.7083   6.7213   7.1955   7.5430   7.5876
     8.6699   8.6745   8.7241   8.7593   9.5327   9.7186   9.8494   9.9984
    10.1284  10.1702  10.1799  10.2421  10.3710  10.4392  10.5808  10.6894
    10.7916  10.8507  10.9858  11.0153  11.0463  11.1350  11.2194  11.2898
    11.3870  11.4468  11.4781  11.5900  12.3145  12.5008  12.5070  12.5327
    15.9764  16.0960  16.3059  16.3154  17.3312  17.5867  17.8336  17.9800
    18.2379  18.2766  18.6551  18.7739  18.7865  18.8928  18.9628  19.1189
    19.8042

          k = 0.0326 0.0328 0.0000 (  4158 PWs)   bands (ev):

   -91.5817 -91.5811 -89.7355 -89.7350 -52.0458 -52.0428 -52.0161 -52.0152
   -52.0104 -52.0089 -50.2558 -50.2545 -50.2450 -50.2437 -50.2043 -50.2040
   -21.8223 -21.7992 -21.7813 -21.7596  -6.7052  -6.6359  -6.2350  -5.9420
    -5.8331  -5.7759  -5.1940  -5.1500  -4.9032  -4.8258  -4.7807  -4.6277
    -3.6618  -3.6198  -3.5930  -3.5042  -3.4468  -3.2030  -2.7418  -2.6747
    -2.6592  -2.5093  -2.3724  -2.2476   4.8229   4.9264   5.2379   5.2637
     5.4195   5.4951   5.6100   5.6776   5.6913   5.7033   6.3571   6.3976
     6.6037   6.6214   6.6409   6.9162   7.0658   7.4416   8.0284   8.0791
     8.1318   8.3009   8.5901   8.9370   9.1932   9.2587   9.5688   9.8901
     9.9239  10.0775  10.1246  10.3220  10.4587  10.5323  10.6230  10.6829
    10.7628  10.8341  10.8615  10.9390  10.9756  11.0427  11.1820  11.3017
    11.3336  11.3708  11.5342  11.5775  11.9046  11.9942  12.1440  12.2427
    15.9045  15.9338  16.3629  16.5670  17.5094  17.8225  18.3303  18.4274
    18.5369  18.7112  18.7678  18.7734  18.9570  19.1179  19.4397  19.8778
    20.0261

          k = 0.0326 0.0328 0.0232 (  4159 PWs)   bands (ev):

   -91.5818 -91.5810 -89.7356 -89.7350 -52.0454 -52.0440 -52.0167 -52.0152
   -52.0108 -52.0076 -50.2564 -50.2542 -50.2450 -50.2436 -50.2054 -50.2029
   -21.8123 -21.7933 -21.7877 -21.7694  -6.5706  -6.5176  -6.2852  -6.1997
    -5.8079  -5.6650  -5.3548  -5.2684  -4.8908  -4.8525  -4.7122  -4.6217
    -3.6498  -3.6435  -3.5733  -3.4831  -3.2437  -3.0432  -2.8133  -2.7001
    -2.6347  -2.6113  -2.4038  -2.3197   4.9347   5.0039   5.3357   5.3847
     5.4312   5.4523   5.5487   5.6703   5.6985   5.7291   6.3541   6.4160
     6.4789   6.4930   6.6013   6.6858   7.1708   7.3322   7.8227   7.9074
     8.3622   8.4603   8.7646   8.8652   9.4264   9.4453   9.7003   9.8471
     9.9081  10.0235  10.0942  10.1662  10.2388  10.4029  10.5523  10.6171
    10.7125  10.8181  10.8300  10.9396  11.0275  11.0575  11.1351  11.2276
    11.3059  11.4233  11.4864  11.5389  12.0298  12.1233  12.3705  12.4091
    15.9836  16.0260  16.2173  16.3384  17.8075  17.8918  18.1887  18.3003
    18.4966  18.6861  18.8365  18.9203  19.0922  19.2902  19.3080  19.7042
    19.8591

          k =-0.0326 0.0000 0.0232 (  4147 PWs)   bands (ev):

   -91.5813 -91.5807 -89.7353 -89.7347 -52.0462 -52.0432 -52.0145 -52.0139
   -52.0111 -52.0045 -50.2568 -50.2524 -50.2441 -50.2422 -50.2059 -50.2002
   -21.8254 -21.8035 -21.7781 -21.7577  -6.4011  -6.3057  -6.2782  -6.0259
    -5.6721  -5.6189  -5.3659  -5.3548  -5.0830  -4.8944  -4.7945  -4.6469
    -3.7301  -3.6847  -3.6371  -3.5558  -3.1334  -3.1058  -2.9047  -2.8343
    -2.7601  -2.5842  -2.5121  -2.4768   5.1466   5.3172   5.3974   5.4285
     5.4373   5.4485   5.6445   5.6775   5.7347   5.7604   6.2520   6.3122
     6.5642   6.5719   6.6648   6.6690   6.6780   7.0878   7.5882   7.5992
     8.5792   8.6110   8.7334   8.8450   9.6549   9.6590   9.8454   9.8736
    10.0848  10.1377  10.2591  10.3570  10.4344  10.4526  10.5805  10.6689
    10.8281  10.9101  10.9600  10.9600  11.0535  11.1307  11.1540  11.3294
    11.3742  11.4291  11.4913  11.5609  12.3809  12.4013  12.4942  12.5675
    15.9454  16.1639  16.2839  16.3126  17.3064  17.5900  17.8607  17.9724
    18.2361  18.2768  18.6549  18.7710  18.7895  18.8861  18.9787  19.1117
    19.8048

          k =-0.0326-0.0328 0.0232 (  4159 PWs)   bands (ev):

   -91.5817 -91.5810 -89.7356 -89.7350 -52.0457 -52.0436 -52.0167 -52.0154
   -52.0105 -52.0077 -50.2567 -50.2539 -50.2460 -50.2427 -50.2060 -50.2025
   -21.8123 -21.7932 -21.7877 -21.7694  -6.5716  -6.5257  -6.2842  -6.2087
    -5.8113  -5.6553  -5.3097  -5.2387  -4.8826  -4.8537  -4.7793  -4.6400
    -3.6536  -3.6404  -3.5775  -3.4641  -3.2378  -3.0607  -2.8229  -2.7116
    -2.6271  -2.5886  -2.4035  -2.3162   4.9333   5.0148   5.3391   5.3644
     5.4306   5.4565   5.5687   5.6727   5.6937   5.7049   6.3531   6.4337
     6.4814   6.5355   6.5860   6.6917   7.0906   7.3505   7.8647   7.9309
     8.3441   8.4864   8.7108   8.7718   9.4213   9.4746   9.6647   9.8540
     9.9569  10.0246  10.0863  10.2386  10.3048  10.5389  10.5484  10.5826
    10.6843  10.8031  10.8403  10.9108  10.9370  11.0375  11.1273  11.2549
    11.3250  11.3762  11.4776  11.5603  12.0678  12.0909  12.3562  12.3978
    15.9815  16.0252  16.2168  16.3566  17.8040  17.8921  18.1883  18.3012
    18.4956  18.6832  18.8408  18.9162  19.0969  19.2877  19.3091  19.7048
    19.8586

 ------ SPIN DOWN ----------


          k = 0.0000 0.0000 0.0000 (  4153 PWs)   bands (ev):

   -91.5827 -91.5806 -89.7365 -89.7341 -52.0453 -52.0376 -52.0209 -52.0171
   -52.0141 -52.0076 -50.2558 -50.2538 -50.2482 -50.2435 -50.2051 -50.2029
   -21.8612 -21.8122 -21.7678 -21.7245  -6.7737  -6.1361  -5.9195  -5.8878
    -5.5799  -5.5488  -5.0990  -5.0816  -5.0692  -4.9739  -4.7384  -4.6531
    -3.7803  -3.7473  -3.6801  -3.5883  -3.5840  -3.3691  -3.3391  -3.2326
    -3.0670  -2.4841  -2.2826  -2.2411   4.7488   5.0812   5.3693   5.4737
     5.4760   5.6106   5.6355   5.6672   5.6997   5.7244   5.8687   6.3430
     6.6419   6.8592   6.9758   6.9764   6.9869   7.4843   7.9662   8.0758
     8.0931   8.3820   8.4913   9.0754   9.1488   9.4580   9.9137   9.9571
    10.4053  10.4138  10.4165  10.7093  10.7169  10.7294  10.8563  10.9176
    10.9203  10.9729  11.0257  11.0367  11.0897  11.1008  11.3908  11.4169
    11.4834  11.5617  11.6384  11.7345  11.8663  11.9429  12.0256  12.0851
    15.7379  16.3975  16.5402  16.6364  16.6485  16.9285  17.5142  17.6037
    17.8405  18.1133  18.4322  18.5473  18.8180  18.8306  18.8438  18.8617
    19.0447

          k = 0.0000 0.0000 0.0232 (  4137 PWs)   bands (ev):

   -91.5810 -91.5808 -89.7348 -89.7344 -52.0406 -52.0404 -52.0189 -52.0146
   -52.0081 -52.0073 -50.2538 -50.2521 -50.2455 -50.2427 -50.2021 -50.2014
   -21.8490 -21.8245 -21.7571 -21.7354  -6.5807  -6.1397  -6.0260  -5.8293
    -5.7440  -5.6338  -5.1435  -5.1384  -5.0098  -4.9174  -4.8328  -4.6550
    -3.7694  -3.7533  -3.7135  -3.6380  -3.4645  -3.3808  -3.0733  -3.0515
    -2.7976  -2.6842  -2.5515  -2.3738   4.9396   5.2504   5.3041   5.4320
     5.4844   5.5930   5.6798   5.6876   5.7075   5.7301   6.1575   6.4161
     6.6734   6.8133   6.8223   6.9406   6.9684   7.0650   8.0636   8.1491
     8.2046   8.3291   8.4103   8.5745   9.2828   9.7994   9.9612  10.1664
    10.3730  10.4292  10.4743  10.6011  10.6350  10.6726  10.8033  10.8286
    10.8968  10.9254  10.9780  11.0392  11.1370  11.1706  11.3251  11.3713
    11.3978  11.5349  11.5861  11.6998  11.9255  12.0172  12.1748  12.2827
    15.8193  16.1509  16.6143  16.6400  16.8213  17.2088  17.6064  17.7425
    18.0244  18.3021  18.4014  18.6899  18.7039  18.8150  18.8741  18.9851
    19.2575

          k = 0.0000 0.0328 0.0000 (  4156 PWs)   bands (ev):

   -91.5818 -91.5808 -89.7356 -89.7347 -52.0422 -52.0411 -52.0204 -52.0160
   -52.0120 -52.0072 -50.2545 -50.2544 -50.2464 -50.2439 -50.2051 -50.2019
   -21.8358 -21.7917 -21.7891 -21.7479  -6.4744  -6.2464  -6.2417  -5.8249
    -5.7074  -5.5335  -5.4032  -5.3755  -5.2172  -5.0582  -4.9585  -4.7053
    -3.6152  -3.4736  -3.4292  -3.4059  -3.2038  -3.0713  -3.0346  -2.9985
    -2.9258  -2.6120  -2.4856  -2.3898   4.9671   5.2983   5.3446   5.3917
     5.4483   5.5416   5.5613   5.6646   5.7123   5.7181   6.3979   6.4332
     6.4667   6.4862   6.6738   6.7991   6.8059   7.3520   7.9849   8.0072
     8.3362   8.4467   8.5655   8.7928   9.3723   9.8270   9.9008  10.0011
    10.0953  10.2583  10.3016  10.3546  10.5198  10.5711  10.5727  10.6853
    10.7305  10.7988  10.9088  10.9180  11.0066  11.0247  11.1054  11.2227
    11.3657  11.4681  11.5149  11.5968  12.0237  12.0994  12.3141  12.3525
    15.9648  16.2064  16.2088  16.3376  17.2293  17.2558  18.2205  18.2993
    18.3834  18.4624  18.5631  18.8429  19.0448  19.1155  19.1439  19.3395
    19.4813

          k = 0.0000 0.0328 0.0232 (  4134 PWs)   bands (ev):

   -91.5808 -91.5801 -89.7347 -89.7339 -52.0420 -52.0419 -52.0155 -52.0137
   -52.0077 -52.0035 -50.2530 -50.2518 -50.2433 -50.2424 -50.2025 -50.1993
   -21.8249 -21.8028 -21.7788 -21.7582  -6.3465  -6.2173  -6.1428  -5.8915
    -5.7926  -5.6166  -5.3400  -5.2975  -5.2384  -5.1791  -5.0886  -4.8542
    -3.5553  -3.4499  -3.3004  -3.2472  -3.2332  -3.0536  -3.0212  -2.8458
    -2.8172  -2.6973  -2.6538  -2.5191   5.1562   5.3094   5.3433   5.4186
     5.4764   5.5191   5.6714   5.7040   5.7326   5.7543   6.3609   6.4467
     6.4751   6.5889   6.6456   6.6520   6.7047   7.1955   7.6513   7.7455
     8.5423   8.6130   8.7068   8.8509   9.5458   9.9057   9.9880  10.0808
    10.1157  10.2022  10.2992  10.3523  10.4205  10.4816  10.5862  10.6373
    10.6725  10.7351  10.8854  10.9067  11.0394  11.0578  11.1145  11.2251
    11.3244  11.4210  11.4733  11.5197  12.2881  12.3107  12.4020  12.4462
    15.9579  16.0999  16.2141  16.2313  17.4664  17.5280  18.0148  18.0763
    18.2755  18.4058  18.5174  18.7441  18.8531  19.0290  19.0611  19.1823
    19.5221

          k = 0.0326 0.0000 0.0000 (  4148 PWs)   bands (ev):

   -91.5814 -91.5806 -89.7352 -89.7345 -52.0441 -52.0402 -52.0198 -52.0144
   -52.0089 -52.0065 -50.2555 -50.2517 -50.2473 -50.2424 -50.2036 -50.2008
   -21.8364 -21.7953 -21.7855 -21.7472  -6.5059  -6.4032  -6.2902  -5.8427
    -5.7788  -5.5339  -5.5040  -5.2810  -4.8840  -4.8452  -4.6840  -4.6201
    -3.7462  -3.7245  -3.7114  -3.6695  -3.2288  -3.0638  -2.9163  -2.9015
    -2.8896  -2.4950  -2.4577  -2.3767   4.9538   5.3239   5.3812   5.4166
     5.4501   5.4972   5.5365   5.6602   5.6958   5.7311   6.2955   6.3178
     6.4792   6.5910   6.6729   6.7514   6.8160   7.3078   7.7328   7.8171
     8.3957   8.6375   8.7148   8.7681   9.3957   9.5644   9.7815   9.8819
    10.0775  10.2716  10.3196  10.3787  10.5016  10.5319  10.5391  10.7506
    10.7723  10.8658  10.8940  10.9710  11.0893  11.1916  11.2689  11.2735
    11.4198  11.5375  11.5622  11.5996  11.9831  12.1253  12.4426  12.5743
    15.9456  16.2648  16.3030  16.3621  17.0510  17.4198  18.1053  18.2104
    18.2797  18.3420  18.5353  18.8713  18.8828  19.0162  19.2254  19.4963
    19.7818

          k = 0.0326 0.0000 0.0232 (  4147 PWs)   bands (ev):

   -91.5813 -91.5807 -89.7351 -89.7345 -52.0462 -52.0432 -52.0145 -52.0139
   -52.0111 -52.0045 -50.2567 -50.2522 -50.2440 -50.2421 -50.2058 -50.2001
   -21.8254 -21.8035 -21.7781 -21.7577  -6.4011  -6.3056  -6.2782  -6.0259
    -5.6721  -5.6189  -5.3659  -5.3547  -5.0829  -4.8943  -4.7944  -4.6469
    -3.7301  -3.6847  -3.6371  -3.5558  -3.1334  -3.1058  -2.9047  -2.8343
    -2.7600  -2.5842  -2.5121  -2.4767   5.1467   5.3174   5.3975   5.4287
     5.4373   5.4485   5.6445   5.6776   5.7347   5.7604   6.2521   6.3122
     6.5643   6.5720   6.6648   6.6691   6.6781   7.0878   7.5883   7.5992
     8.5793   8.6110   8.7335   8.8451   9.6549   9.6590   9.8454   9.8737
    10.0848  10.1377  10.2591  10.3571  10.4345  10.4526  10.5806  10.6690
    10.8281  10.9101  10.9600  10.9601  11.0535  11.1307  11.1541  11.3294
    11.3742  11.4291  11.4913  11.5610  12.3810  12.4014  12.4942  12.5676
    15.9458  16.1643  16.2842  16.3129  17.3065  17.5900  17.8607  17.9724
    18.2361  18.2768  18.6549  18.7710  18.7895  18.8861  18.9787  19.1117
    19.7697

          k = 0.0326 0.0328 0.0000 (  4158 PWs)   bands (ev):

   -91.5817 -91.5810 -89.7354 -89.7349 -52.0458 -52.0428 -52.0161 -52.0152
   -52.0104 -52.0089 -50.2556 -50.2544 -50.2448 -50.2436 -50.2042 -50.2039
   -21.8223 -21.7992 -21.7813 -21.7596  -6.7052  -6.6359  -6.2350  -5.9420
    -5.8331  -5.7759  -5.1939  -5.1499  -4.9032  -4.8258  -4.7806  -4.6277
    -3.6618  -3.6198  -3.5930  -3.5042  -3.4468  -3.2030  -2.7418  -2.6747
    -2.6592  -2.5093  -2.3724  -2.2476   4.8230   4.9265   5.2379   5.2638
     5.4196   5.4952   5.6100   5.6777   5.6914   5.7033   6.3572   6.3977
     6.6038   6.6214   6.6410   6.9163   7.0659   7.4417   8.0285   8.0791
     8.1318   8.3009   8.5902   8.9370   9.1932   9.2587   9.5688   9.8902
     9.9239  10.0775  10.1246  10.3220  10.4588  10.5324  10.6231  10.6830
    10.7628  10.8341  10.8616  10.9390  10.9757  11.0428  11.1821  11.3017
    11.3337  11.3709  11.5342  11.5775  11.9047  11.9943  12.1441  12.2428
    15.9048  15.9342  16.3632  16.5673  17.5094  17.8225  18.3303  18.4275
    18.5369  18.7112  18.7678  18.7734  18.9570  19.1179  19.4398  19.8780
    20.0925

          k = 0.0326 0.0328 0.0232 (  4159 PWs)   bands (ev):

   -91.5817 -91.5810 -89.7355 -89.7348 -52.0457 -52.0436 -52.0167 -52.0154
   -52.0105 -52.0077 -50.2565 -50.2538 -50.2459 -50.2426 -50.2058 -50.2023
   -21.8123 -21.7932 -21.7877 -21.7694  -6.5716  -6.5256  -6.2842  -6.2087
    -5.8112  -5.6553  -5.3097  -5.2386  -4.8825  -4.8537  -4.7792  -4.6400
    -3.6536  -3.6403  -3.5775  -3.4641  -3.2378  -3.0607  -2.8229  -2.7115
    -2.6271  -2.5886  -2.4035  -2.3162   4.9334   5.0149   5.3392   5.3646
     5.4307   5.4565   5.5688   5.6727   5.6937   5.7049   6.3531   6.4338
     6.4815   6.5356   6.5861   6.6917   7.0906   7.3506   7.8648   7.9310
     8.3442   8.4865   8.7109   8.7718   9.4213   9.4747   9.6647   9.8540
     9.9570  10.0247  10.0863  10.2386  10.3048  10.5389  10.5484  10.5827
    10.6844  10.8031  10.8404  10.9108  10.9371  11.0375  11.1273  11.2550
    11.3250  11.3762  11.4777  11.5604  12.0679  12.0910  12.3563  12.3979
    15.9818  16.0256  16.2171  16.3569  17.8040  17.8921  18.1883  18.3012
    18.4956  18.6832  18.8408  18.9162  19.0969  19.2877  19.3091  19.7048
    19.8586

          k =-0.0326 0.0000 0.0232 (  4147 PWs)   bands (ev):

   -91.5813 -91.5807 -89.7352 -89.7345 -52.0464 -52.0429 -52.0147 -52.0138
   -52.0112 -52.0043 -50.2557 -50.2532 -50.2437 -50.2425 -50.2054 -50.2004
   -21.8254 -21.8036 -21.7780 -21.7577  -6.3819  -6.2870  -6.2769  -6.0311
    -5.8049  -5.5476  -5.4074  -5.3456  -4.9474  -4.9090  -4.7731  -4.7457
    -3.7480  -3.6496  -3.5959  -3.5853  -3.1067  -3.0977  -2.8935  -2.8462
    -2.7795  -2.6196  -2.5734  -2.4079   5.1480   5.3539   5.3553   5.4120
     5.4531   5.4550   5.6559   5.7012   5.7261   5.7393   6.2398   6.3510
     6.5066   6.5286   6.5857   6.7084   6.7214   7.1956   7.5430   7.5877
     8.6700   8.6746   8.7241   8.7594   9.5327   9.7186   9.8495   9.9984
    10.1284  10.1703  10.1799  10.2421  10.3710  10.4393  10.5808  10.6894
    10.7917  10.8507  10.9859  11.0154  11.0464  11.1350  11.2194  11.2899
    11.3870  11.4469  11.4781  11.5900  12.3146  12.5009  12.5070  12.5328
    15.9768  16.0964  16.3062  16.3157  17.3312  17.5867  17.8336  17.9800
    18.2379  18.2766  18.6551  18.7739  18.7866  18.8928  18.9628  19.1190
    19.8039

          k =-0.0326-0.0328 0.0232 (  4159 PWs)   bands (ev):

   -91.5817 -91.5810 -89.7355 -89.7348 -52.0454 -52.0440 -52.0167 -52.0152
   -52.0107 -52.0076 -50.2563 -50.2541 -50.2449 -50.2435 -50.2053 -50.2028
   -21.8123 -21.7933 -21.7877 -21.7694  -6.5706  -6.5176  -6.2852  -6.1997
    -5.8079  -5.6650  -5.3547  -5.2684  -4.8907  -4.8524  -4.7122  -4.6216
    -3.6498  -3.6435  -3.5733  -3.4831  -3.2437  -3.0432  -2.8133  -2.7001
    -2.6347  -2.6113  -2.4038  -2.3197   4.9349   5.0040   5.3358   5.3849
     5.4313   5.4523   5.5487   5.6703   5.6985   5.7291   6.3541   6.4160
     6.4790   6.4931   6.6014   6.6858   7.1708   7.3323   7.8227   7.9074
     8.3622   8.4604   8.7646   8.8654   9.4265   9.4454   9.7003   9.8471
     9.9081  10.0236  10.0943  10.1662  10.2388  10.4030  10.5523  10.6171
    10.7125  10.8182  10.8300  10.9397  11.0276  11.0575  11.1351  11.2277
    11.3059  11.4233  11.4864  11.5390  12.0298  12.1234  12.3706  12.4092
    15.9839  16.0263  16.2176  16.3387  17.8075  17.8918  18.1887  18.3003
    18.4966  18.6861  18.8365  18.9203  19.0922  19.2902  19.3080  19.7042
    19.8592

     the Fermi energy is    12.2595 ev

!    total energy              =   -2274.64844568 Ry
     estimated scf accuracy    <          9.8E-12 Ry
     smearing contrib. (-TS)   =      -0.00779973 Ry
     internal energy E=F+TS    =   -2274.64064594 Ry

     The total energy is F=E-TS. E is the sum of the following terms:
     one-electron contribution =   -1165.87549411 Ry
     hartree contribution      =     707.46352210 Ry
     xc contribution           =    -417.53786713 Ry
     ewald contribution        =   -1290.64021256 Ry
     Hubbard energy            =       1.32837332 Ry
     one-center paw contrib.   =    -109.37896756 Ry

     total magnetization       =     0.00 Bohr mag/cell
     absolute magnetization    =     5.93 Bohr mag/cell

     convergence has been achieved in  33 iterations

     Forces acting on atoms (cartesian axes, Ry/au):

     atom    1 type  4   force =    -0.00305898    0.00664132    0.00000012
     atom    2 type  4   force =     0.00305898    0.00664132   -0.00000012
     atom    3 type  4   force =     0.00305898   -0.00664132   -0.00000012
     atom    4 type  4   force =    -0.00305898   -0.00664132    0.00000012
     atom    5 type  1   force =     0.00000000    0.00000000    0.00000000
     atom    6 type  1   force =     0.00000000    0.00000000    0.00000000
     atom    7 type  2   force =     0.00000000    0.00000000    0.00000000
     atom    8 type  2   force =     0.00000000    0.00000000    0.00000000
     atom    9 type  3   force =     0.00339341   -0.00091509   -0.00001004
     atom   10 type  3   force =    -0.00339341   -0.00091509    0.00001004
     atom   11 type  3   force =    -0.00339341    0.00091509    0.00001004
     atom   12 type  3   force =     0.00339341    0.00091509   -0.00001004
     atom   13 type  3   force =     0.00238640    0.00505690    0.00635194
     atom   14 type  3   force =    -0.00238640    0.00505690   -0.00635194
     atom   15 type  3   force =    -0.00237581   -0.00504582    0.00635155
     atom   16 type  3   force =     0.00237581   -0.00504582   -0.00635155
     atom   17 type  3   force =    -0.00238640   -0.00505690   -0.00635194
     atom   18 type  3   force =     0.00238640   -0.00505690    0.00635194
     atom   19 type  3   force =     0.00237581    0.00504582   -0.00635155
     atom   20 type  3   force =    -0.00237581    0.00504582    0.00635155

     Total force =     0.028905     Total SCF correction =     0.000001


     Computing stress (Cartesian axis) and pressure

          total   stress  (Ry/bohr**3)                   (kbar)     P=     -927.20
  -0.00622583   0.00000000  -0.00000000         -915.85        0.00       -0.00
   0.00000000  -0.00634004   0.00000000            0.00     -932.65        0.00
  -0.00000000   0.00000000  -0.00634309           -0.00        0.00     -933.10


     Writing output data file tmp/PrNiO3.save/

     init_run     :     17.12s CPU      7.42s WALL (       1 calls)
     electrons    :    960.85s CPU    341.59s WALL (       1 calls)
     forces       :     13.77s CPU      4.76s WALL (       1 calls)
     stress       :     50.44s CPU     18.34s WALL (       1 calls)

     Called by init_run:
     wfcinit      :     11.05s CPU      4.24s WALL (       1 calls)
     potinit      :      2.58s CPU      0.93s WALL (       1 calls)
     hinit0       :      2.20s CPU      1.74s WALL (       1 calls)

     Called by electrons:
     c_bands      :    696.20s CPU    246.56s WALL (      33 calls)
     sum_band     :    152.04s CPU     53.61s WALL (      33 calls)
     v_of_rho     :     11.63s CPU      4.04s WALL (      34 calls)
     newd         :     42.56s CPU     16.15s WALL (      34 calls)
     PAW_pot      :     58.70s CPU     21.05s WALL (      34 calls)
     mix_rho      :      2.76s CPU      1.08s WALL (      33 calls)

     Called by c_bands:
     init_us_2    :      4.94s CPU      2.38s WALL (    1440 calls)
     cegterg      :    674.02s CPU    238.81s WALL (     660 calls)

     Called by *egterg:
     cdiaghg      :     53.81s CPU     28.53s WALL (    2669 calls)
     h_psi        :    416.41s CPU    140.78s WALL (    2689 calls)
     s_psi        :     46.59s CPU     15.64s WALL (    2749 calls)
     g_psi        :      4.71s CPU      1.56s WALL (    2009 calls)

     Called by h_psi:
     h_psi:calbec :     40.55s CPU     13.12s WALL (    2689 calls)
     vloc_psi     :    320.73s CPU    107.76s WALL (    2689 calls)
     add_vuspsi   :     41.19s CPU     14.25s WALL (    2689 calls)
     vhpsi        :     11.65s CPU      3.91s WALL (    2689 calls)

     General routines
     calbec       :     86.74s CPU     28.41s WALL (   26278 calls)
     fft          :      1.23s CPU      0.50s WALL (     888 calls)
     ffts         :      0.56s CPU      0.22s WALL (     896 calls)
     fftw         :    323.16s CPU    108.34s WALL (  458172 calls)
     interpolate  :      0.12s CPU      0.08s WALL (      68 calls)
     davcio       :      0.01s CPU      0.13s WALL (      20 calls)

     Parallel routines

     Hubbard U routines
     new_ns       :      3.82s CPU      1.34s WALL (      33 calls)
     new_ns       :      3.82s CPU      1.34s WALL (      33 calls)
     vhpsi        :     11.65s CPU      3.91s WALL (    2689 calls)
     force_hub    :      8.02s CPU      2.71s WALL (       1 calls)
     stres_hub    :     24.36s CPU      9.09s WALL (       1 calls)

     PWSCF        :  17m22.61s CPU   6m14.35s WALL


   This run was terminated on:  15:20:26  23Oct2020            

=------------------------------------------------------------------------------=
   JOB DONE.
=------------------------------------------------------------------------------=
Note: The following floating-point exceptions are signalling: IEEE_UNDERFLOW_FLAG IEEE_DENORMAL
