<PP_INFO>
Generated using Vanderbilt code, version   7  3  6                              
Author: unknown    Generation date:    0    0    0                              
Automatically converted from original format                                    
    1        The Pseudo was generated with a Scalar-Relativistic Calculation
  2.42000000000E+00    Local Potential cutoff radius
nl pn  l   occ               Rcut            Rcut US             E pseu
5S  5  0  2.00      1.20000000000      2.20000000000     -4.14537700750
5P  5  1  6.00      1.20000000000      2.00000000000     -2.79504059781
5D  5  2  0.50      1.20000000000      2.18000000000     -1.16215720573
6S  6  0  0.50      1.20000000000      2.20000000000     -1.06412478911
6P  6  1  0.00      1.20000000000      2.00000000000     -0.77726226071
</PP_INFO>


<PP_HEADER>
   0                   Version Number
  Pr                   Element
   US                  Ultrasoft pseudopotential
    T                  Nonlinear Core Correction
 SLA  PW   PSX  PSC    PBEsol  Exchange-Correlation functional
   11.00000000000      Z valence
 -100.78319229484      Total energy
    0.00000    0.00000 Suggested cutoff for wfc and rho
    2                  Max angular momentum component
  925                  Number of points in mesh
    5    6             Number of Wavefunctions, Number of Projectors
 Wavefunctions         nl  l   occ
                       5S  0  2.00
                       5P  1  6.00
                       5D  2  0.50
                       6S  0  0.50
                       6P  1  0.00
</PP_HEADER>


<PP_MESH>
  <PP_R>
  0.00000000000E+00  7.18149306440E-07  1.44857437301E-06  2.19148503671E-06
  2.94709472139E-06  3.71562049908E-06  4.49728315239E-06  5.29230723785E-06
  6.10092115050E-06  6.92335718948E-06  7.75985162474E-06  8.61064476495E-06
  9.47598102652E-06  1.03561090038E-05  1.12512815405E-05  1.21617558025E-05
  1.30877933512E-05  1.40296602195E-05  1.49876269874E-05  1.59619688603E-05
  1.69529657476E-05  1.79609023438E-05  1.89860682093E-05  2.00287578545E-05
  2.10892708241E-05  2.21679117828E-05  2.32649906033E-05  2.43808224552E-05
  2.55157278953E-05  2.66700329600E-05  2.78440692589E-05  2.90381740697E-05
  3.02526904358E-05  3.14879672642E-05  3.27443594260E-05  3.40222278583E-05
  3.53219396681E-05  3.66438682374E-05  3.79883933307E-05  3.93559012040E-05
  4.07467847159E-05  4.21614434403E-05  4.36002837812E-05  4.50637190898E-05
  4.65521697825E-05  4.80660634626E-05  4.96058350422E-05  5.11719268681E-05
  5.27647888482E-05  5.43848785807E-05  5.60326614862E-05  5.77086109408E-05
  5.94132084124E-05  6.11469435987E-05  6.29103145685E-05  6.47038279040E-05
  6.65279988469E-05  6.83833514463E-05  7.02704187089E-05  7.21897427529E-05
  7.41418749627E-05  7.61273761482E-05  7.81468167055E-05  8.02007767808E-05
  8.22898464370E-05  8.44146258234E-05  8.65757253481E-05  8.87737658531E-05
  9.10093787930E-05  9.32832064159E-05  9.55959019488E-05  9.79481297841E-05
  1.00340565671E-04  1.02773896911E-04  1.05248822553E-04  1.07766053594E-04
  1.10326313187E-04  1.12930336845E-04  1.15578872652E-04  1.18272681483E-04
  1.21012537217E-04  1.23799226960E-04  1.26633551275E-04  1.29516324409E-04
  1.32448374527E-04  1.35430543949E-04  1.38463689396E-04  1.41548682231E-04
  1.44686408712E-04  1.47877770250E-04  1.51123683658E-04  1.54425081427E-04
  1.57782911982E-04  1.61198139965E-04  1.64671746504E-04  1.68204729499E-04
  1.71798103907E-04  1.75452902036E-04  1.79170173838E-04  1.82950987214E-04
  1.86796428318E-04  1.90707601871E-04  1.94685631477E-04  1.98731659948E-04
  2.02846849629E-04  2.07032382734E-04  2.11289461686E-04  2.15619309461E-04
  2.20023169942E-04  2.24502308271E-04  2.29058011219E-04  2.33691587551E-04
  2.38404368403E-04  2.43197707667E-04  2.48072982376E-04  2.53031593102E-04
  2.58074964358E-04  2.63204545008E-04  2.68421808679E-04  2.73728254192E-04
  2.79125405985E-04  2.84614814555E-04  2.90198056904E-04  2.95876736989E-04
  3.01652486185E-04  3.07526963752E-04  3.13501857315E-04  3.19578883345E-04
  3.25759787654E-04  3.32046345895E-04  3.38440364076E-04  3.44943679075E-04
  3.51558159167E-04  3.58285704565E-04  3.65128247963E-04  3.72087755090E-04
  3.79166225279E-04  3.86365692037E-04  3.93688223632E-04  4.01135923685E-04
  4.08710931776E-04  4.16415424058E-04  4.24251613884E-04  4.32221752438E-04
  4.40328129388E-04  4.48573073539E-04  4.56958953503E-04  4.65488178381E-04
  4.74163198455E-04  4.82986505891E-04  4.91960635453E-04  5.01088165235E-04
  5.10371717401E-04  5.19813958935E-04  5.29417602410E-04  5.39185406767E-04
  5.49120178108E-04  5.59224770499E-04  5.69502086796E-04  5.79955079471E-04
  5.90586751468E-04  6.01400157060E-04  6.12398402729E-04  6.23584648059E-04
  6.34962106641E-04  6.46534046998E-04  6.58303793526E-04  6.70274727446E-04
  6.82450287773E-04  6.94833972312E-04  7.07429338656E-04  7.20240005208E-04
  7.33269652227E-04  7.46522022877E-04  7.60000924309E-04  7.73710228748E-04
  7.87653874615E-04  8.01835867647E-04  8.16260282058E-04  8.30931261703E-04
  8.45853021269E-04  8.61029847490E-04  8.76466100374E-04  8.92166214459E-04
  9.08134700082E-04  9.24376144681E-04  9.40895214109E-04  9.57696653975E-04
  9.74785291006E-04  9.92166034439E-04  1.00984387742E-03  1.02782389846E-03
  1.04611126287E-03  1.06471122425E-03  1.08362912601E-03  1.10287040289E-03
  1.12244058256E-03  1.14234528713E-03  1.16259023485E-03  1.18318124169E-03
  1.20412422306E-03  1.22542519547E-03  1.24709027827E-03  1.26912569543E-03
  1.29153777729E-03  1.31433296241E-03  1.33751779941E-03  1.36109894884E-03
  1.38508318511E-03  1.40947739842E-03  1.43428859677E-03  1.45952390792E-03
  1.48519058150E-03  1.51129599105E-03  1.53784763614E-03  1.56485314454E-03
  1.59232027443E-03  1.62025691656E-03  1.64867109660E-03  1.67757097740E-03
  1.70696486132E-03  1.73686119267E-03  1.76726856008E-03  1.79819569899E-03
  1.82965149419E-03  1.86164498230E-03  1.89418535444E-03  1.92728195883E-03
  1.96094430349E-03  1.99518205894E-03  2.03000506104E-03  2.06542331376E-03
  2.10144699208E-03  2.13808644491E-03  2.17535219805E-03  2.21325495723E-03
  2.25180561119E-03  2.29101523476E-03  2.33089509214E-03  2.37145664002E-03
  2.41271153095E-03  2.45467161666E-03  2.49734895148E-03  2.54075579578E-03
  2.58490461950E-03  2.62980810575E-03  2.67547915443E-03  2.72193088594E-03
  2.76917664498E-03  2.81723000433E-03  2.86610476880E-03  2.91581497916E-03
  2.96637491618E-03  3.01779910476E-03  3.07010231809E-03  3.12329958184E-03
  3.17740617858E-03  3.23243765208E-03  3.28840981182E-03  3.34533873751E-03
  3.40324078373E-03  3.46213258462E-03  3.52203105867E-03  3.58295341353E-03
  3.64491715102E-03  3.70794007213E-03  3.77204028211E-03  3.83723619573E-03
  3.90354654251E-03  3.97099037211E-03  4.03958705986E-03  4.10935631226E-03
  4.18031817265E-03  4.25249302701E-03  4.32590160977E-03  4.40056500981E-03
  4.47650467647E-03  4.55374242575E-03  4.63230044656E-03  4.71220130710E-03
  4.79346796134E-03  4.87612375562E-03  4.96019243534E-03  5.04569815182E-03
  5.13266546918E-03  5.22111937147E-03  5.31108526977E-03  5.40258900954E-03
  5.49565687803E-03  5.59031561186E-03  5.68659240463E-03  5.78451491481E-03
  5.88411127363E-03  5.98541009322E-03  6.08844047475E-03  6.19323201686E-03
  6.29981482414E-03  6.40821951575E-03  6.51847723428E-03  6.63061965464E-03
  6.74467899316E-03  6.86068801688E-03  6.97868005297E-03  7.09868899824E-03
  7.22074932895E-03  7.34489611066E-03  7.47116500834E-03  7.59959229660E-03
  7.73021487012E-03  7.86307025424E-03  7.99819661574E-03  8.13563277380E-03
  8.27541821117E-03  8.41759308552E-03  8.56219824091E-03  8.70927521963E-03
  8.85886627403E-03  9.01101437874E-03  9.16576324295E-03  9.32315732303E-03
  9.48324183525E-03  9.64606276879E-03  9.81166689896E-03  9.98010180060E-03
  1.01514158618E-02  1.03256582978E-02  1.05028791651E-02  1.06831293758E-02
  1.08664607123E-02  1.10529258421E-02  1.12425783330E-02  1.14354726686E-02
  1.16316642637E-02  1.18312094803E-02  1.20341656439E-02  1.22405910598E-02
  1.24505450302E-02  1.26640878706E-02  1.28812809279E-02  1.31021865974E-02
  1.33268683410E-02  1.35553907054E-02  1.37878193407E-02  1.40242210192E-02
  1.42646636544E-02  1.45092163210E-02  1.47579492740E-02  1.50109339698E-02
  1.52682430858E-02  1.55299505421E-02  1.57961315221E-02  1.60668624945E-02
  1.63422212350E-02  1.66222868489E-02  1.69071397936E-02  1.71968619019E-02
  1.74915364052E-02  1.77912479579E-02  1.80960826614E-02  1.84061280886E-02
  1.87214733098E-02  1.90422089174E-02  1.93684270526E-02  1.97002214315E-02
  2.00376873723E-02  2.03809218223E-02  2.07300233863E-02  2.10850923543E-02
  2.14462307308E-02  2.18135422638E-02  2.21871324748E-02  2.25671086891E-02
  2.29535800665E-02  2.33466576327E-02  2.37464543113E-02  2.41530849562E-02
  2.45666663845E-02  2.49873174100E-02  2.54151588778E-02  2.58503136984E-02
  2.62929068833E-02  2.67430655811E-02  2.72009191135E-02  2.76665990131E-02
  2.81402390606E-02  2.86219753238E-02  2.91119461960E-02  2.96102924365E-02
  3.01171572105E-02  3.06326861304E-02  3.11570272977E-02  3.16903313455E-02
  3.22327514817E-02  3.27844435332E-02  3.33455659903E-02  3.39162800526E-02
  3.44967496754E-02  3.50871416163E-02  3.56876254834E-02  3.62983737843E-02
  3.69195619749E-02  3.75513685107E-02  3.81939748975E-02  3.88475657437E-02
  3.95123288132E-02  4.01884550796E-02  4.08761387809E-02  4.15755774754E-02
  4.22869720982E-02  4.30105270193E-02  4.37464501019E-02  4.44949527626E-02
  4.52562500316E-02  4.60305606150E-02  4.68181069571E-02  4.76191153049E-02
  4.84338157724E-02  4.92624424075E-02  5.01052332584E-02  5.09624304427E-02
  5.18342802166E-02  5.27210330456E-02  5.36229436766E-02  5.45402712111E-02
  5.54732791797E-02  5.64222356173E-02  5.73874131408E-02  5.83690890271E-02
  5.93675452926E-02  6.03830687746E-02  6.14159512132E-02  6.24664893355E-02
  6.35349849409E-02  6.46217449875E-02  6.57270816804E-02  6.68513125614E-02
  6.79947606004E-02  6.91577542877E-02  7.03406277291E-02  7.15437207411E-02
  7.27673789491E-02  7.40119538864E-02  7.52778030953E-02  7.65652902298E-02
  7.78747851600E-02  7.92066640785E-02  8.05613096084E-02  8.19391109130E-02
  8.33404638080E-02  8.47657708750E-02  8.62154415772E-02  8.76898923768E-02
  8.91895468551E-02  9.07148358337E-02  9.22661974988E-02  9.38440775264E-02
  9.54489292109E-02  9.70812135953E-02  9.87413996031E-02  1.00429964174E-01
  1.02147392399E-01  1.03894177663E-01  1.05670821784E-01  1.07477835156E-01
  1.09315736900E-01  1.11185055009E-01  1.13086326502E-01  1.15020097578E-01
  1.16986923772E-01  1.18987370114E-01  1.21022011295E-01  1.23091431828E-01
  1.25196226216E-01  1.27336999127E-01  1.29514365563E-01  1.31728951040E-01
  1.33981391764E-01  1.36272334820E-01  1.38602438349E-01  1.40972371747E-01
  1.43382815848E-01  1.45834463127E-01  1.48328017895E-01  1.50864196502E-01
  1.53443727542E-01  1.56067352066E-01  1.58735823789E-01  1.61449909312E-01
  1.64210388339E-01  1.67018053903E-01  1.69873712591E-01  1.72778184779E-01
  1.75732304866E-01  1.78736921512E-01  1.81792897887E-01  1.84901111913E-01
  1.88062456520E-01  1.91277839901E-01  1.94548185774E-01  1.97874433645E-01
  2.01257539081E-01  2.04698473983E-01  2.08198226865E-01  2.11757803138E-01
  2.15378225400E-01  2.19060533728E-01  2.22805785978E-01  2.26615058087E-01
  2.30489444388E-01  2.34430057915E-01  2.38438030730E-01  2.42514514247E-01
  2.46660679561E-01  2.50877717785E-01  2.55166840391E-01  2.59529279563E-01
  2.63966288544E-01  2.68479142001E-01  2.73069136389E-01  2.77737590326E-01
  2.82485844968E-01  2.87315264396E-01  2.92227236009E-01  2.97223170921E-01
  3.02304504369E-01  3.07472696120E-01  3.12729230896E-01  3.18075618799E-01
  3.23513395741E-01  3.29044123891E-01  3.34669392119E-01  3.40390816458E-01
  3.46210040560E-01  3.52128736178E-01  3.58148603636E-01  3.64271372328E-01
  3.70498801205E-01  3.76832679288E-01  3.83274826177E-01  3.89827092576E-01
  3.96491360825E-01  4.03269545439E-01  4.10163593659E-01  4.17175486012E-01
  4.24307236879E-01  4.31560895074E-01  4.38938544432E-01  4.46442304410E-01
  4.54074330692E-01  4.61836815812E-01  4.69731989782E-01  4.77762120732E-01
  4.85929515564E-01  4.94236520612E-01  5.02685522318E-01  5.11278947917E-01
  5.20019266133E-01  5.28908987891E-01  5.37950667036E-01  5.47146901067E-01
  5.56500331884E-01  5.66013646548E-01  5.75689578048E-01  5.85530906094E-01
  5.95540457908E-01  6.05721109041E-01  6.16075784197E-01  6.26607458073E-01
  6.37319156216E-01  6.48213955890E-01  6.59294986959E-01  6.70565432789E-01
  6.82028531162E-01  6.93687575203E-01  7.05545914331E-01  7.17606955216E-01
  7.29874162763E-01  7.42351061103E-01  7.55041234606E-01  7.67948328915E-01
  7.81076051988E-01  7.94428175166E-01  8.08008534255E-01  8.21821030630E-01
  8.35869632353E-01  8.50158375316E-01  8.64691364399E-01  8.79472774648E-01
  8.94506852476E-01  9.09797916882E-01  9.25350360694E-01  9.41168651828E-01
  9.57257334573E-01  9.73621030895E-01  9.90264441769E-01  1.00719234852E+00
  1.02440961422E+00  1.04192118504E+00  1.05973209173E+00  1.07784745101E+00
  1.09627246708E+00  1.11501243308E+00  1.13407273265E+00  1.15345884143E+00
  1.17317632869E+00  1.19323085888E+00  1.21362819327E+00  1.23437419163E+00
  1.25547481388E+00  1.27693612181E+00  1.29876428086E+00  1.32096556181E+00
  1.34354634268E+00  1.36651311049E+00  1.38987246314E+00  1.41363111132E+00
  1.43779588044E+00  1.46237371255E+00  1.48737166841E+00  1.51279692943E+00
  1.53865679981E+00  1.56495870858E+00  1.59171021178E+00  1.61891899459E+00
  1.64659287356E+00  1.67473979888E+00  1.70336785660E+00  1.73248527101E+00
  1.76210040699E+00  1.79222177239E+00  1.82285802049E+00  1.85401795249E+00
  1.88571052005E+00  1.91794482781E+00  1.95073013608E+00  1.98407586344E+00
  2.01799158948E+00  2.05248705751E+00  2.08757217743E+00  2.12325702851E+00
  2.15955186231E+00  2.19646710565E+00  2.23401336355E+00  2.27220142233E+00
  2.31104225268E+00  2.35054701281E+00  2.39072705169E+00  2.43159391226E+00
  2.47315933477E+00  2.51543526018E+00  2.55843383352E+00  2.60216740747E+00
  2.64664854583E+00  2.69189002717E+00  2.73790484850E+00  2.78470622898E+00
  2.83230761374E+00  2.88072267773E+00  2.92996532968E+00  2.98004971604E+00
  3.03099022509E+00  3.08280149105E+00  3.13549839829E+00  3.18909608561E+00
  3.24360995060E+00  3.29905565403E+00  3.35544912438E+00  3.41280656240E+00
  3.47114444577E+00  3.53047953384E+00  3.59082887244E+00  3.65220979875E+00
  3.71463994634E+00  3.77813725017E+00  3.84271995179E+00  3.90840660456E+00
  3.97521607899E+00  4.04316756815E+00  4.11228059317E+00  4.18257500891E+00
  4.25407100958E+00  4.32678913460E+00  4.40075027448E+00  4.47597567682E+00
  4.55248695243E+00  4.63030608152E+00  4.70945542002E+00  4.78995770599E+00
  4.87183606619E+00  4.95511402269E+00  5.03981549964E+00  5.12596483012E+00
  5.21358676317E+00  5.30270647088E+00  5.39334955562E+00  5.48554205740E+00
  5.57931046132E+00  5.67468170524E+00  5.77168318748E+00  5.87034277468E+00
  5.97068880983E+00  6.07275012041E+00  6.17655602666E+00  6.28213635000E+00
  6.38952142162E+00  6.49874209116E+00  6.60982973563E+00  6.72281626834E+00
  6.83773414814E+00  6.95461638872E+00  7.07349656808E+00  7.19440883819E+00
  7.31738793482E+00  7.44246918747E+00  7.56968852956E+00  7.69908250877E+00
  7.83068829746E+00  7.96454370344E+00  8.10068718077E+00  8.23915784085E+00
  8.37999546361E+00  8.52324050897E+00  8.66893412847E+00  8.81711817706E+00
  8.96783522516E+00  9.12112857085E+00  9.27704225235E+00  9.43562106064E+00
  9.59691055234E+00  9.76095706280E+00  9.92780771941E+00  1.00975104551E+01
  1.02701140223E+01  1.04456680066E+01  1.06242228412E+01  1.08058298215E+01
  1.09905411196E+01  1.11784097997E+01  1.13694898326E+01  1.15638361120E+01
  1.17615044699E+01  1.19625516924E+01  1.21670355367E+01  1.23750147468E+01
  1.25865490713E+01  1.28016992799E+01  1.30205271810E+01  1.32430956397E+01
  1.34694685956E+01  1.36997110812E+01  1.39338892408E+01  1.41720703492E+01
  1.44143228312E+01  1.46607162813E+01  1.49113214836E+01  1.51662104321E+01
  1.54254563514E+01  1.56891337179E+01  1.59573182810E+01  1.62300870849E+01
  1.65075184908E+01  1.67896921995E+01  1.70766892738E+01  1.73685921627E+01
  1.76654847240E+01  1.79674522493E+01  1.82745814880E+01  1.85869606725E+01
  1.89046795431E+01  1.92278293744E+01  1.95565030011E+01  1.98907948447E+01
  2.02308009409E+01  2.05766189668E+01  2.09283482691E+01  2.12860898931E+01
  2.16499466108E+01  2.20200229513E+01  2.23964252303E+01  2.27792615810E+01
  2.31686419849E+01  2.35646783033E+01  2.39674843098E+01  2.43771757229E+01
  2.47938702389E+01  2.52176875661E+01  2.56487494591E+01  2.60871797535E+01
  2.65331044019E+01  2.69866515099E+01  2.74479513726E+01  2.79171365128E+01
  2.83943417181E+01  2.88797040804E+01  2.93733630349E+01  2.98754604002E+01
  3.03861404193E+01  3.09055498006E+01  3.14338377604E+01  3.19711560656E+01
  3.25176590773E+01  3.30735037953E+01  3.36388499030E+01  3.42138598134E+01
  3.47986987157E+01  3.53935346229E+01  3.59985384197E+01  3.66138839121E+01
  3.72397478769E+01  3.78763101127E+01  3.85237534915E+01  3.91822640113E+01
  3.98520308495E+01  4.05332464169E+01  4.12261064138E+01  4.19308098854E+01
  4.26475592794E+01  4.33765605039E+01  4.41180229869E+01  4.48721597363E+01
  4.56391874010E+01  4.64193263331E+01  4.72128006514E+01  4.80198383059E+01
  4.88406711428E+01  4.96755349714E+01  5.05246696320E+01  5.13883190646E+01
  5.22667313789E+01  5.31601589259E+01  5.40688583698E+01  5.49930907626E+01
  5.59331216182E+01  5.68892209894E+01  5.78616635450E+01  5.88507286489E+01
  5.98567004404E+01  6.08798679158E+01  6.19205250112E+01  6.29789706873E+01
  6.40555090150E+01  6.51504492630E+01  6.62641059865E+01  6.73967991174E+01
  6.85488540566E+01  6.97206017671E+01  7.09123788694E+01  7.21245277381E+01
  7.33573965999E+01  7.46113396344E+01  7.58867170750E+01  7.71838953130E+01
  7.85032470026E+01  7.98451511681E+01  8.12099933125E+01  8.25981655286E+01
  8.40100666113E+01  8.54461021726E+01  8.69066847576E+01  8.83922339636E+01
  8.99031765599E+01  9.14399466113E+01  9.30029856019E+01  9.45927425627E+01
  9.62096742000E+01  9.78542450271E+01  9.95269274973E+01  1.01228202140E+02
  1.02958557698E+02  1.04718491270E+02  1.06508508450E+02  1.08329123475E+02
  1.10180859373E+02  1.12064248113E+02  1.13979830754E+02  1.15928157607E+02
  1.17909788388E+02  1.19925292383E+02  1.21975248605E+02  1.24060245967E+02
  1.26180883450E+02  1.28337770271E+02  1.30531526062E+02  1.32762781047E+02
  1.35032176221E+02  1.37340363539E+02  1.39688006098E+02  1.42075778330E+02
  1.44504366196E+02  1.46974467382E+02  1.49486791500E+02  1.52042060293E+02
  1.54641007840E+02  1.57284380768E+02  1.59972938468E+02  1.62707453308E+02
  1.65488710864E+02  1.68317510136E+02  1.71194663784E+02  1.74120998358E+02
  1.77097354537E+02  1.80124587372E+02  1.83203566527E+02  1.86335176533E+02
  1.89520317042E+02  1.92759903083E+02  1.96054865326E+02  1.99406150350E+02
  2.02814720915E+02  2.06281556236E+02  2.09807652269E+02  2.13394021992E+02
  2.17041695701E+02  2.20751721300E+02  2.24525164610E+02  2.28363109667E+02
  2.32266659038E+02  2.36236934138E+02  2.40275075550E+02  2.44382243353E+02
  2.48559617458E+02  2.52808397944E+02  2.57129805402E+02  2.61525081290E+02
  2.65995488285E+02
  </PP_R>
  <PP_RAB>
  7.12080487408E-07  7.24252509551E-07  7.36632595425E-07  7.49224301589E-07
  7.62031245397E-07  7.75057106036E-07  7.88305625584E-07  8.01780610083E-07
  8.15485930637E-07  8.29425524518E-07  8.43603396302E-07  8.58023619017E-07
  8.72690335315E-07  8.87607758659E-07  9.02780174535E-07  9.18211941687E-07
  9.33907493361E-07  9.49871338586E-07  9.66108063466E-07  9.82622332497E-07
  9.99418889910E-07  1.01650256103E-06  1.03387825367E-06  1.05155095952E-06
  1.06952575561E-06  1.08780780576E-06  1.10640236204E-06  1.12531476631E-06
  1.14455045173E-06  1.16411494436E-06  1.18401386468E-06  1.20425292927E-06
  1.22483795242E-06  1.24577484782E-06  1.26706963022E-06  1.28872841721E-06
  1.31075743094E-06  1.33316299991E-06  1.35595156081E-06  1.37912966036E-06
  1.40270395717E-06  1.42668122368E-06  1.45106834811E-06  1.47587233639E-06
  1.50110031423E-06  1.52675952915E-06  1.55285735253E-06  1.57940128178E-06
  1.60639894246E-06  1.63385809047E-06  1.66178661429E-06  1.69019253725E-06
  1.71908401982E-06  1.74846936196E-06  1.77835700552E-06  1.80875553663E-06
  1.83967368820E-06  1.87112034243E-06  1.90310453332E-06  1.93563544932E-06
  1.96872243593E-06  2.00237499839E-06  2.03660280445E-06  2.07141568708E-06
  2.10682364736E-06  2.14283685730E-06  2.17946566280E-06  2.21672058661E-06
  2.25461233136E-06  2.29315178259E-06  2.33235001196E-06  2.37221828036E-06
  2.41276804116E-06  2.45401094353E-06  2.49595883576E-06  2.53862376866E-06
  2.58201799905E-06  2.62615399325E-06  2.67104443067E-06  2.71670220746E-06
  2.76314044023E-06  2.81037246978E-06  2.85841186496E-06  2.90727242655E-06
  2.95696819125E-06  3.00751343570E-06  3.05892268056E-06  3.11121069471E-06
  3.16439249948E-06  3.21848337299E-06  3.27349885450E-06  3.32945474887E-06
  3.38636713117E-06  3.44425235122E-06  3.50312703832E-06  3.56300810603E-06
  3.62391275702E-06  3.68585848802E-06  3.74886309484E-06  3.81294467748E-06
  3.87812164534E-06  3.94441272251E-06  4.01183695313E-06  4.08041370687E-06
  4.15016268450E-06  4.22110392357E-06  4.29325780412E-06  4.36664505455E-06
  4.44128675761E-06  4.51720435641E-06  4.59441966061E-06  4.67295485267E-06
  4.75283249424E-06  4.83407553261E-06  4.91670730734E-06  5.00075155694E-06
  5.08623242569E-06  5.17317447059E-06  5.26160266841E-06  5.35154242286E-06
  5.44301957190E-06  5.53606039513E-06  5.63069162138E-06  5.72694043638E-06
  5.82483449054E-06  5.92440190694E-06  6.02567128936E-06  6.12867173055E-06
  6.23343282052E-06  6.33998465513E-06  6.44835784464E-06  6.55858352257E-06
  6.67069335464E-06  6.78471954783E-06  6.90069485966E-06  7.01865260758E-06
  7.13862667858E-06  7.26065153888E-06  7.38476224388E-06  7.51099444816E-06
  7.63938441581E-06  7.76996903077E-06  7.90278580747E-06  8.03787290162E-06
  8.17526912111E-06  8.31501393722E-06  8.45714749593E-06  8.60171062946E-06
  8.74874486801E-06  8.89829245166E-06  9.05039634254E-06  9.20510023716E-06
  9.36244857895E-06  9.52248657105E-06  9.68526018927E-06  9.85081619532E-06
  1.00192021503E-05  1.01904664281E-05  1.03646582297E-05  1.05418275971E-05
  1.07220254275E-05  1.09053034884E-05  1.10917144320E-05  1.12813118104E-05
  1.14741500915E-05  1.16702846738E-05  1.18697719031E-05  1.20726690882E-05
  1.22790345175E-05  1.24889274757E-05  1.27024082612E-05  1.29195382028E-05
  1.31403796777E-05  1.33649961294E-05  1.35934520859E-05  1.38258131781E-05
  1.40621461588E-05  1.43025189221E-05  1.45470005223E-05  1.47956611942E-05
  1.50485723733E-05  1.53058067161E-05  1.55674381209E-05  1.58335417494E-05
  1.61041940481E-05  1.63794727701E-05  1.66594569977E-05  1.69442271649E-05
  1.72338650807E-05  1.75284539525E-05  1.78280784098E-05  1.81328245292E-05
  1.84427798581E-05  1.87580334407E-05  1.90786758434E-05  1.94047991805E-05
  1.97364971409E-05  2.00738650150E-05  2.04169997221E-05  2.07659998381E-05
  2.11209656240E-05  2.14819990547E-05  2.18492038479E-05  2.22226854947E-05
  2.26025512889E-05  2.29889103588E-05  2.33818736977E-05  2.37815541965E-05
  2.41880666757E-05  2.46015279183E-05  2.50220567038E-05  2.54497738420E-05
  2.58848022078E-05  2.63272667764E-05  2.67772946592E-05  2.72350151407E-05
  2.77005597150E-05  2.81740621240E-05  2.86556583959E-05  2.91454868840E-05
  2.96436883064E-05  3.01504057869E-05  3.06657848955E-05  3.11899736907E-05
  3.17231227618E-05  3.22653852722E-05  3.28169170034E-05  3.33778763998E-05
  3.39484246143E-05  3.45287255542E-05  3.51189459288E-05  3.57192552969E-05
  3.63298261160E-05  3.69508337910E-05  3.75824567256E-05  3.82248763727E-05
  3.88782772872E-05  3.95428471783E-05  4.02187769643E-05  4.09062608266E-05
  4.16054962661E-05  4.23166841596E-05  4.30400288176E-05  4.37757380430E-05
  4.45240231908E-05  4.52850992289E-05  4.60591847998E-05  4.68465022831E-05
  4.76472778600E-05  4.84617415778E-05  4.92901274162E-05  5.01326733544E-05
  5.09896214396E-05  5.18612178563E-05  5.27477129973E-05  5.36493615356E-05
  5.45664224973E-05  5.54991593362E-05  5.64478400097E-05  5.74127370553E-05
  5.83941276693E-05  5.93922937861E-05  6.04075221597E-05  6.14401044455E-05
  6.24903372843E-05  6.35585223878E-05  6.46449666249E-05  6.57499821100E-05
  6.68738862926E-05  6.80170020487E-05  6.91796577732E-05  7.03621874748E-05
  7.15649308713E-05  7.27882334875E-05  7.40324467547E-05  7.52979281113E-05
  7.65850411056E-05  7.78941555001E-05  7.92256473783E-05  8.05798992518E-05
  8.19573001711E-05  8.33582458368E-05  8.47831387135E-05  8.62323881453E-05
  8.77064104736E-05  8.92056291564E-05  9.07304748902E-05  9.22813857338E-05
  9.38588072338E-05  9.54631925528E-05  9.70950025998E-05  9.87547061621E-05
  1.00442780041E-04  1.02159709186E-04  1.03905986839E-04  1.05682114671E-04
  1.07488602930E-04  1.09325970585E-04  1.11194745475E-04  1.13095464464E-04
  1.15028673592E-04  1.16994928231E-04  1.18994793250E-04  1.21028843169E-04
  1.23097662334E-04  1.25201845075E-04  1.27341995883E-04  1.29518729582E-04
  1.31732671506E-04  1.33984457678E-04  1.36274734991E-04  1.38604161399E-04
  1.40973406101E-04  1.43383149733E-04  1.45834084571E-04  1.48326914718E-04
  1.50862356318E-04  1.53441137754E-04  1.56063999860E-04  1.58731696132E-04
  1.61444992949E-04  1.64204669789E-04  1.67011519453E-04  1.69866348294E-04
  1.72769976451E-04  1.75723238078E-04  1.78726981591E-04  1.81782069908E-04
  1.84889380695E-04  1.88049806624E-04  1.91264255623E-04  1.94533651142E-04
  1.97858932415E-04  2.01241054730E-04  2.04680989706E-04  2.08179725569E-04
  2.11738267439E-04  2.15357637616E-04  2.19038875875E-04  2.22783039765E-04
  2.26591204911E-04  2.30464465325E-04  2.34403933720E-04  2.38410741830E-04
  2.42486040732E-04  2.46631001182E-04  2.50846813945E-04  2.55134690144E-04
  2.59495861603E-04  2.63931581201E-04  2.68443123235E-04  2.73031783784E-04
  2.77698881081E-04  2.82445755893E-04  2.87273771905E-04  2.92184316112E-04
  2.97178799220E-04  3.02258656046E-04  3.07425345934E-04  3.12680353176E-04
  3.18025187433E-04  3.23461384172E-04  3.28990505107E-04  3.34614138648E-04
  3.40333900356E-04  3.46151433408E-04  3.52068409069E-04  3.58086527170E-04
  3.64207516602E-04  3.70433135805E-04  3.76765173280E-04  3.83205448099E-04
  3.89755810428E-04  3.96418142058E-04  4.03194356950E-04  4.10086401779E-04
  4.17096256495E-04  4.24225934895E-04  4.31477485196E-04  4.38852990630E-04
  4.46354570036E-04  4.53984378472E-04  4.61744607835E-04  4.69637487489E-04
  4.77665284905E-04  4.85830306314E-04  4.94134897369E-04  5.02581443819E-04
  5.11172372191E-04  5.19910150495E-04  5.28797288924E-04  5.37836340581E-04
  5.47029902212E-04  5.56380614948E-04  5.65891165068E-04  5.75564284769E-04
  5.85402752952E-04  5.95409396018E-04  6.05587088681E-04  6.15938754797E-04
  6.26467368198E-04  6.37175953551E-04  6.48067587225E-04  6.59145398177E-04
  6.70412568846E-04  6.81872336074E-04  6.93527992029E-04  7.05382885156E-04
  7.17440421135E-04  7.29704063865E-04  7.42177336452E-04  7.54863822226E-04
  7.67767165769E-04  7.80891073961E-04  7.94239317048E-04  8.07815729722E-04
  8.21624212223E-04  8.35668731461E-04  8.49953322155E-04  8.64482087991E-04
  8.79259202802E-04  8.94288911768E-04  9.09575532633E-04  9.25123456947E-04
  9.40937151329E-04  9.57021158746E-04  9.73380099823E-04  9.90018674167E-04
  1.00694166172E-03  1.02415392412E-03  1.04166040613E-03  1.05946613702E-03
  1.07757623203E-03  1.09599589384E-03  1.11473041405E-03  1.13378517475E-03
  1.15316564999E-03  1.17287740740E-03  1.19292610979E-03  1.21331751678E-03
  1.23405748640E-03  1.25515197687E-03  1.27660704820E-03  1.29842886404E-03
  1.32062369337E-03  1.34319791233E-03  1.36615800605E-03  1.38951057054E-03
  1.41326231452E-03  1.43742006142E-03  1.46199075129E-03  1.48698144281E-03
  1.51239931532E-03  1.53825167089E-03  1.56454593640E-03  1.59128966568E-03
  1.61849054169E-03  1.64615637871E-03  1.67429512461E-03  1.70291486309E-03
  1.73202381607E-03  1.76163034597E-03  1.79174295818E-03  1.82237030347E-03
  1.85352118048E-03  1.88520453826E-03  1.91742947882E-03  1.95020525977E-03
  1.98354129696E-03  2.01744716717E-03  2.05193261092E-03  2.08700753520E-03
  2.12268201635E-03  2.15896630298E-03  2.19587081885E-03  2.23340616591E-03
  2.27158312734E-03  2.31041267065E-03  2.34990595081E-03  2.39007431348E-03
  2.43092929825E-03  2.47248264197E-03  2.51474628210E-03  2.55773236018E-03
  2.60145322527E-03  2.64592143753E-03  2.69114977182E-03  2.73715122137E-03
  2.78393900149E-03  2.83152655342E-03  2.87992754813E-03  2.92915589030E-03
  2.97922572228E-03  3.03015142815E-03  3.08194763790E-03  3.13462923156E-03
  3.18821134354E-03  3.24270936695E-03  3.29813895801E-03  3.35451604057E-03
  3.41185681067E-03  3.47017774122E-03  3.52949558668E-03  3.58982738792E-03
  3.65119047710E-03  3.71360248266E-03  3.77708133434E-03  3.84164526841E-03
  3.90731283282E-03  3.97410289260E-03  4.04203463524E-03  4.11112757621E-03
  4.18140156458E-03  4.25287678870E-03  4.32557378203E-03  4.39951342901E-03
  4.47471697106E-03  4.55120601270E-03  4.62900252776E-03  4.70812886568E-03
  4.78860775791E-03  4.87046232448E-03  4.95371608063E-03  5.03839294356E-03
  5.12451723928E-03  5.21211370964E-03  5.30120751941E-03  5.39182426352E-03
  5.48398997440E-03  5.57773112948E-03  5.67307465878E-03  5.77004795265E-03
  5.86867886965E-03  5.96899574452E-03  6.07102739636E-03  6.17480313689E-03
  6.28035277888E-03  6.38770664468E-03  6.49689557501E-03  6.60795093770E-03
  6.72090463684E-03  6.83578912182E-03  6.95263739674E-03  7.07148302984E-03
  7.19236016318E-03  7.31530352241E-03  7.44034842679E-03  7.56753079930E-03