SIRIUS 7.3.1, git hash: aa4aa7a2dd1106426d47faa60aa219aeb49a5f37
Warning! Compiled in 'debug' mode with assert statements enabled!

     Program PWSCF v.7.0 starts on 28May2022 at  0:28:42 
        Git branch: ristretto
        Last git commit: bf5381c15b5c86ca233a71d57e6e88c8002f2fac-dirty
        Last git commit date: Fri May 6 14:08:20 2022 +0200
        Last git commit subject: Merge pull request #17 from haampie/lr-fixes

     This program is part of the open-source Quantum ESPRESSO suite
     for quantum simulation of materials; please cite
         "P. Giannozzi et al., J. Phys.:Condens. Matter 21 395502 (2009);
         "P. Giannozzi et al., J. Phys.:Condens. Matter 29 465901 (2017);
         "P. Giannozzi et al., J. Chem. Phys. 152 154105 (2020);
          URL http://www.quantum-espresso.org", 
     in publications or presentations arising from this work. More details at
     http://www.quantum-espresso.org/quote

     Parallel version (MPI & OpenMP), running on      24 processor cores
     Number of MPI processes:                 1
     Threads/MPI process:                    24

     MPI processes distributed on     1 nodes
     59674 MiB available memory on the printing compute node when the environment starts

     Reading input from pw.in
     Message from routine read_cards :
     DEPRECATED: no units specified in CELL_PARAMETERS card

     Current dimensions of program PWSCF are:
     Max number of different atomic species (ntypx) = 10
     Max number of k-points (npk) =  40000
     Max angular momentum in pseudopotentials (lmaxx) =  4

     IMPORTANT: XC functional enforced from input :
     Exchange-correlation= XC-000I-000I-101L-130L-000I-000I
                           (   0   0 101 130   0   0   0)
     Any further DFT definition will be discarded
     Please, verify this is what you really want

     Message from routine setup:
     using ibrav=0 with symmetry is DISCOURAGED, use correct ibrav instead

     Subspace diagonalization in iterative solution of the eigenvalue problem:
     a serial algorithm will be used


     G-vector sticks info
     --------------------
     sticks:   dense  smooth     PW     G-vecs:    dense   smooth      PW
     Sum        2567    1045    321                64627    16817    2961

     Using Slab Decomposition



     bravais-lattice index     =            0
     lattice parameter (alat)  =       7.8800  a.u.
     unit-cell volume          =     244.6519 (a.u.)^3
     number of atoms/cell      =            4
     number of atomic types    =            3
     number of electrons       =        48.00
     number of Kohn-Sham states=           29
     kinetic-energy cutoff     =      64.0000  Ry
     charge density cutoff     =     625.0000  Ry
     scf convergence threshold =      1.0E-13
     mixing beta               =       0.2500
     number of iterations used =            8  plain     mixing
     Exchange-correlation= XC-000I-000I-101L-130L-000I-000I
                           (   0   0 101 130   0   0   0)
     Hubbard projectors: ortho-atomic
     Hubbard parameters of DFT+U (Dudarev formulation) in eV:
     U(Ni1-3d) =  8.0000
     U(Ni2-3d) =  8.0000

     Internal variables: lda_plus_u =T, lda_plus_u_kind = 0

     celldm(1)=   7.880000  celldm(2)=   0.000000  celldm(3)=   0.000000
     celldm(4)=   0.000000  celldm(5)=   0.000000  celldm(6)=   0.000000

     crystal axes: (cart. coord. in units of alat)
               a(1) = (   1.000000   0.500000   0.500000 )  
               a(2) = (   0.500000   1.000000   0.500000 )  
               a(3) = (   0.500000   0.500000   1.000000 )  

     reciprocal axes: (cart. coord. in units 2 pi/alat)
               b(1) = (  1.500000 -0.500000 -0.500000 )  
               b(2) = ( -0.500000  1.500000 -0.500000 )  
               b(3) = ( -0.500000 -0.500000  1.500000 )  


     PseudoPot. # 1 for Ni read from file:
     ./ni_pbe_v1.4.uspp.F.UPF
     MD5 check sum: 1ee80287db30b12d2bc1f57a5b5d6409
     Pseudo is Ultrasoft + core correction, Zval = 18.0
     Generated by new atomic code, or converted to UPF format
     Using radial grid of  865 points,  6 beta functions with: 
                l(1) =   0
                l(2) =   0
                l(3) =   1
                l(4) =   1
                l(5) =   2
                l(6) =   2
     Q(r) pseudized with 10 coefficients,  rinner =    0.980   0.980   0.980
                                                       0.980   0.980

     PseudoPot. # 2 for Ni read from file:
     ./ni_pbe_v1.4.uspp.F.UPF
     MD5 check sum: 1ee80287db30b12d2bc1f57a5b5d6409
     Pseudo is Ultrasoft + core correction, Zval = 18.0
     Generated by new atomic code, or converted to UPF format
     Using radial grid of  865 points,  6 beta functions with: 
                l(1) =   0
                l(2) =   0
                l(3) =   1
                l(4) =   1
                l(5) =   2
                l(6) =   2
     Q(r) pseudized with 10 coefficients,  rinner =    0.980   0.980   0.980
                                                       0.980   0.980

     PseudoPot. # 3 for O  read from file:
     ./o_pbe_v1.2.uspp.F.UPF
     MD5 check sum: 734c27235a0248c51dbae37a1fbe46ec
     Pseudo is Ultrasoft + core correction, Zval =  6.0
     Generated by new atomic code, or converted to UPF format
     Using radial grid of  737 points,  5 beta functions with: 
                l(1) =   0
                l(2) =   0
                l(3) =   1
                l(4) =   1
                l(5) =   2
     Q(r) pseudized with  8 coefficients,  rinner =    0.900   0.900   0.900
                                                       0.900   0.900

     atomic species   valence    mass     pseudopotential
        Ni1           18.00     1.00000     Ni( 1.00)
        Ni2           18.00     1.00000     Ni( 1.00)
        O              6.00     1.00000     O ( 1.00)

     Starting magnetic structure 
     atomic species   magnetization
        Ni1          0.100
        Ni2         -0.100
        O            0.000

     12 Sym. Ops., with inversion, found


                                    s                        frac. trans.

      isym =  1     identity                                     

 cryst.   s( 1) = (     1          0          0      )
                  (     0          1          0      )
                  (     0          0          1      )

 cart.    s( 1) = (  1.0000000  0.0000000  0.0000000 )
                  (  0.0000000  1.0000000  0.0000000 )
                  (  0.0000000  0.0000000  1.0000000 )


      isym =  2     180 deg rotation - cart. axis [1,-1,0]       

 cryst.   s( 2) = (     0         -1          0      )
                  (    -1          0          0      )
                  (     0          0         -1      )

 cart.    s( 2) = (  0.0000000 -1.0000000  0.0000000 )
                  ( -1.0000000  0.0000000  0.0000000 )
                  (  0.0000000  0.0000000 -1.0000000 )


      isym =  3     180 deg rotation - cart. axis [-1,0,1]       

 cryst.   s( 3) = (     0          0         -1      )
                  (     0         -1          0      )
                  (    -1          0          0      )

 cart.    s( 3) = (  0.0000000  0.0000000 -1.0000000 )
                  (  0.0000000 -1.0000000  0.0000000 )
                  ( -1.0000000  0.0000000  0.0000000 )


      isym =  4     180 deg rotation - cart. axis [0,1,-1]       

 cryst.   s( 4) = (    -1          0          0      )
                  (     0          0         -1      )
                  (     0         -1          0      )

 cart.    s( 4) = ( -1.0000000  0.0000000  0.0000000 )
                  (  0.0000000  0.0000000 -1.0000000 )
                  (  0.0000000 -1.0000000  0.0000000 )


      isym =  5     120 deg rotation - cart. axis [-1,-1,-1]     

 cryst.   s( 5) = (     0          0          1      )
                  (     1          0          0      )
                  (     0          1          0      )

 cart.    s( 5) = (  0.0000000  1.0000000  0.0000000 )
                  (  0.0000000  0.0000000  1.0000000 )
                  (  1.0000000  0.0000000  0.0000000 )


      isym =  6     120 deg rotation - cart. axis [1,1,1]        

 cryst.   s( 6) = (     0          1          0      )
                  (     0          0          1      )
                  (     1          0          0      )

 cart.    s( 6) = (  0.0000000  0.0000000  1.0000000 )
                  (  1.0000000  0.0000000  0.0000000 )
                  (  0.0000000  1.0000000  0.0000000 )


      isym =  7     inversion                                    

 cryst.   s( 7) = (    -1          0          0      )
                  (     0         -1          0      )
                  (     0          0         -1      )

 cart.    s( 7) = ( -1.0000000  0.0000000  0.0000000 )
                  (  0.0000000 -1.0000000  0.0000000 )
                  (  0.0000000  0.0000000 -1.0000000 )


      isym =  8     inv. 180 deg rotation - cart. axis [1,-1,0]  

 cryst.   s( 8) = (     0          1          0      )
                  (     1          0          0      )
                  (     0          0          1      )

 cart.    s( 8) = (  0.0000000  1.0000000  0.0000000 )
                  (  1.0000000  0.0000000  0.0000000 )
                  (  0.0000000  0.0000000  1.0000000 )


      isym =  9     inv. 180 deg rotation - cart. axis [-1,0,1]  

 cryst.   s( 9) = (     0          0          1      )
                  (     0          1          0      )
                  (     1          0          0      )

 cart.    s( 9) = (  0.0000000  0.0000000  1.0000000 )
                  (  0.0000000  1.0000000  0.0000000 )
                  (  1.0000000  0.0000000  0.0000000 )


      isym = 10     inv. 180 deg rotation - cart. axis [0,1,-1]  

 cryst.   s(10) = (     1          0          0      )
                  (     0          0          1      )
                  (     0          1          0      )

 cart.    s(10) = (  1.0000000  0.0000000  0.0000000 )
                  (  0.0000000  0.0000000  1.0000000 )
                  (  0.0000000  1.0000000  0.0000000 )


      isym = 11     inv. 120 deg rotation - cart. axis [-1,-1,-1]

 cryst.   s(11) = (     0          0         -1      )
                  (    -1          0          0      )
                  (     0         -1          0      )

 cart.    s(11) = (  0.0000000 -1.0000000  0.0000000 )
                  (  0.0000000  0.0000000 -1.0000000 )
                  ( -1.0000000  0.0000000  0.0000000 )


      isym = 12     inv. 120 deg rotation - cart. axis [1,1,1]   

 cryst.   s(12) = (     0         -1          0      )
                  (     0          0         -1      )
                  (    -1          0          0      )

 cart.    s(12) = (  0.0000000  0.0000000 -1.0000000 )
                  ( -1.0000000  0.0000000  0.0000000 )
                  (  0.0000000 -1.0000000  0.0000000 )


   Cartesian axes

     site n.     atom                  positions (alat units)
         1           Ni1 tau(   1) = (   0.0000000   0.0000000   0.0000000  )
         2           Ni2 tau(   2) = (   1.0000000   1.0000000   1.0000000  )
         3           O   tau(   3) = (   0.5020000   0.5020000   0.5020000  )
         4           O   tau(   4) = (   1.4980000   1.4980000   1.4980000  )

   Crystallographic axes

     site n.     atom                  positions (cryst. coord.)
         1           Ni1 tau(   1) = (  0.0000000  0.0000000  0.0000000  )
         2           Ni2 tau(   2) = (  0.5000000  0.5000000  0.5000000  )
         3           O   tau(   3) = (  0.2510000  0.2510000  0.2510000  )
         4           O   tau(   4) = (  0.7490000  0.7490000  0.7490000  )

     number of k points=    13  Gaussian smearing, width (Ry)=  0.0200
                       cart. coord. in units 2pi/alat
        k(    1) = (   0.0000000   0.0000000   0.0000000), wk =   0.0156250
        k(    2) = (  -0.1250000  -0.1250000   0.3750000), wk =   0.0937500
        k(    3) = (   0.2500000   0.2500000  -0.7500000), wk =   0.0468750
        k(    4) = (  -0.2500000   0.2500000   0.2500000), wk =   0.0937500
        k(    5) = (   0.1250000   0.6250000  -0.8750000), wk =   0.1875000
        k(    6) = (   0.0000000   0.5000000  -0.5000000), wk =   0.0937500
        k(    7) = (   0.5000000  -0.5000000  -0.5000000), wk =   0.0468750
        k(    8) = (   0.1250000   0.1250000   0.1250000), wk =   0.0312500
        k(    9) = (   0.5000000   0.5000000  -1.0000000), wk =   0.0937500
        k(   10) = (   0.3750000   0.3750000  -0.6250000), wk =   0.0937500
        k(   11) = (   0.8750000  -0.6250000  -0.6250000), wk =   0.0937500
        k(   12) = (   0.7500000  -0.7500000  -0.2500000), wk =   0.0937500
        k(   13) = (  -0.2500000  -0.2500000  -0.2500000), wk =   0.0156250

                       cryst. coord.
        k(    1) = (   0.0000000   0.0000000   0.0000000), wk =   0.0156250
        k(    2) = (   0.0000000   0.0000000   0.2500000), wk =   0.0937500
        k(    3) = (   0.0000000   0.0000000  -0.5000000), wk =   0.0468750
        k(    4) = (   0.0000000   0.2500000   0.2500000), wk =   0.0937500
        k(    5) = (   0.0000000   0.2500000  -0.5000000), wk =   0.1875000
        k(    6) = (   0.0000000   0.2500000  -0.2500000), wk =   0.0937500
        k(    7) = (   0.0000000  -0.5000000  -0.5000000), wk =   0.0468750
        k(    8) = (   0.2500000   0.2500000   0.2500000), wk =   0.0312500
        k(    9) = (   0.2500000   0.2500000  -0.5000000), wk =   0.0937500
        k(   10) = (   0.2500000   0.2500000  -0.2500000), wk =   0.0937500
        k(   11) = (   0.2500000  -0.5000000  -0.5000000), wk =   0.0937500
        k(   12) = (   0.2500000  -0.5000000  -0.2500000), wk =   0.0937500
        k(   13) = (  -0.5000000  -0.5000000  -0.5000000), wk =   0.0156250

     Dense  grid:    64627 G-vectors     FFT dimensions: (  80,  80,  80)

     Smooth grid:    16817 G-vectors     FFT dimensions: (  50,  50,  50)

     Dynamical RAM for                 wfc:       0.94 MB

     Dynamical RAM for     wfc (w. buffer):      25.27 MB

     Dynamical RAM for             U proj.:       0.32 MB

     Dynamical RAM for  U proj. (w. buff.):       8.71 MB

     Dynamical RAM for           str. fact:       2.96 MB

     Dynamical RAM for           local pot:       0.00 MB

     Dynamical RAM for          nlocal pot:       2.00 MB

     Dynamical RAM for                qrad:       6.02 MB

     Dynamical RAM for          rho,v,vnew:      29.35 MB

     Dynamical RAM for               rhoin:       9.78 MB

     Dynamical RAM for            rho*nmix:      31.56 MB

     Dynamical RAM for           G-vectors:       3.83 MB

     Dynamical RAM for          h,s,v(r/c):       0.15 MB

     Dynamical RAM for          <psi|beta>:       0.03 MB

     Dynamical RAM for                 psi:       1.87 MB

     Dynamical RAM for                hpsi:       1.87 MB

     Dynamical RAM for                spsi:       1.87 MB

     Dynamical RAM for      wfcinit/wfcrot:       2.22 MB

     Dynamical RAM for           addusdens:     186.38 MB

     Dynamical RAM for          addusforce:     188.37 MB

     Dynamical RAM for         addusstress:     199.69 MB

     Estimated static dynamical RAM per process >     115.31 MB

     Estimated max dynamical RAM per process >     346.55 MB

     WARNING: libxc functional with ID  101 depends
      on external parameters: check the user_guide of
      QE if you need to modify them or to check their
      default values.

     WARNING: libxc functional with ID  130 depends
      on external parameters: check the user_guide of
      QE if you need to modify them or to check their
      default values.

     Check: negative core charge=   -0.000010
     Generating pointlists ...
     new r_m :   0.2054 (alat units)  1.6188 (a.u.) for type    1
     new r_m :   0.2071 (alat units)  1.6318 (a.u.) for type    2
     new r_m :   0.2054 (alat units)  1.6188 (a.u.) for type    3

     Initial potential from superposition of free atoms

     starting charge      44.0000, renormalised to      48.0000

     HUBBARD ENERGY =    0.7056  (Ry)

     STARTING HUBBARD OCCUPATIONS:

     =================== HUBBARD OCCUPATIONS ===================
     ------------------------ ATOM    1 ------------------------
     Tr[ns(  1)] (up, down, total) =   5.00000  3.00000  8.00000
     Atomic magnetic moment for atom   1 =   2.00000
     SPIN  1
     eigenvalues:
       1.000  1.000  1.000  1.000  1.000
     eigenvectors (columns):
       1.000  0.000  0.000  0.000  0.000
       0.000  1.000  0.000  0.000  0.000
       0.000  0.000  1.000  0.000  0.000
       0.000  0.000  0.000  1.000  0.000
       0.000  0.000  0.000  0.000  1.000
     occupation matrix ns (before diag.):
       1.000  0.000  0.000  0.000  0.000
       0.000  1.000  0.000  0.000  0.000
       0.000  0.000  1.000  0.000  0.000
       0.000  0.000  0.000  1.000  0.000
       0.000  0.000  0.000  0.000  1.000
     SPIN  2
     eigenvalues:
       0.600  0.600  0.600  0.600  0.600
     eigenvectors (columns):
       1.000  0.000  0.000  0.000  0.000
       0.000  1.000  0.000  0.000  0.000
       0.000  0.000  1.000  0.000  0.000
       0.000  0.000  0.000  1.000  0.000
       0.000  0.000  0.000  0.000  1.000
     occupation matrix ns (before diag.):
       0.600  0.000  0.000  0.000  0.000
       0.000  0.600  0.000  0.000  0.000
       0.000  0.000  0.600  0.000  0.000
       0.000  0.000  0.000  0.600  0.000
       0.000  0.000  0.000  0.000  0.600
     ------------------------ ATOM    2 ------------------------
     Tr[ns(  2)] (up, down, total) =   3.00000  5.00000  8.00000
     Atomic magnetic moment for atom   2 =  -2.00000
     SPIN  1
     eigenvalues:
       0.600  0.600  0.600  0.600  0.600
     eigenvectors (columns):
       1.000  0.000  0.000  0.000  0.000
       0.000  1.000  0.000  0.000  0.000
       0.000  0.000  1.000  0.000  0.000
       0.000  0.000  0.000  1.000  0.000
       0.000  0.000  0.000  0.000  1.000
     occupation matrix ns (before diag.):
       0.600  0.000  0.000  0.000  0.000
       0.000  0.600  0.000  0.000  0.000
       0.000  0.000  0.600  0.000  0.000
       0.000  0.000  0.000  0.600  0.000
       0.000  0.000  0.000  0.000  0.600
     SPIN  2
     eigenvalues:
       1.000  1.000  1.000  1.000  1.000
     eigenvectors (columns):
       1.000  0.000  0.000  0.000  0.000
       0.000  1.000  0.000  0.000  0.000
       0.000  0.000  1.000  0.000  0.000
       0.000  0.000  0.000  1.000  0.000
       0.000  0.000  0.000  0.000  1.000
     occupation matrix ns (before diag.):
       1.000  0.000  0.000  0.000  0.000
       0.000  1.000  0.000  0.000  0.000
       0.000  0.000  1.000  0.000  0.000
       0.000  0.000  0.000  1.000  0.000
       0.000  0.000  0.000  0.000  1.000

     Number of occupied Hubbard levels =   16.0000

     Atomic wfc used for Hubbard projectors are orthogonalized

     Starting wfcs are   34 randomized atomic wfcs

     total cpu time spent up to now is        5.9 secs

     per-process dynamical memory:   783.9 Mb

     Self-consistent Calculation

     iteration #  1     ecut=    64.00 Ry     beta= 0.25
     Davidson diagonalization with overlap

---- Real-time Memory Report at c_bands before calling an iterative solver
           890 MiB given to the printing process from OS
           774 MiB allocation reported by mallinfo(arena+hblkhd)
         59444 MiB available memory on the node where the printing process lives
------------------
     ethr =  1.00E-02,  avg # of iterations =  3.5

     =================== HUBBARD OCCUPATIONS ===================
     ------------------------ ATOM    1 ------------------------
     Tr[ns(  1)] (up, down, total) =   3.64946  0.79979  4.44925
     Atomic magnetic moment for atom   1 =   2.84967
     SPIN  1
     eigenvalues:
       0.692  0.692  0.736  0.765  0.765
     eigenvectors (columns):
       0.189 -0.000 -0.000  0.325  0.927
      -0.400  0.695 -0.577  0.152  0.029
      -0.402 -0.694 -0.577 -0.101  0.117
      -0.000 -0.189  0.000  0.927 -0.325
      -0.802  0.001  0.577  0.051  0.146
     occupation matrix ns (before diag.):
       0.762  0.006  0.006 -0.000  0.011
       0.006  0.708  0.014  0.010 -0.014
       0.006  0.014  0.708 -0.010 -0.014
      -0.000  0.010 -0.010  0.762 -0.000
       0.011 -0.014 -0.014 -0.000  0.708
     SPIN  2
     eigenvalues:
       0.057  0.057  0.217  0.217  0.252
     eigenvectors (columns):
       0.011  1.000  0.007  0.002  0.000
      -0.005  0.003 -0.615  0.537 -0.577
       0.005  0.003 -0.158 -0.801 -0.577
      -1.000  0.011  0.002 -0.007 -0.000
       0.000  0.006 -0.773 -0.264  0.577
     occupation matrix ns (before diag.):
       0.057 -0.000 -0.000  0.000 -0.001
      -0.000  0.229  0.012 -0.001 -0.012
      -0.000  0.012  0.229  0.001 -0.012
       0.000 -0.001  0.001  0.057 -0.000
      -0.001 -0.012 -0.012 -0.000  0.229
     ------------------------ ATOM    2 ------------------------
     Tr[ns(  2)] (up, down, total) =   0.81620  3.70600  4.52220
     Atomic magnetic moment for atom   2 =  -2.88980
     SPIN  1
     eigenvalues:
       0.060  0.060  0.225  0.225  0.247
     eigenvectors (columns):
       0.006 -1.000 -0.013 -0.005  0.000
      -0.010  0.006 -0.639  0.508 -0.577
       0.010  0.006 -0.121 -0.807 -0.577
       1.000  0.006 -0.005  0.013 -0.000
      -0.000  0.012 -0.760 -0.299  0.577
     occupation matrix ns (before diag.):
       0.060  0.001  0.001 -0.000  0.002
       0.001  0.232  0.007  0.002 -0.007
       0.001  0.007  0.232 -0.002 -0.007
      -0.000  0.002 -0.002  0.060 -0.000
       0.002 -0.007 -0.007 -0.000  0.232
     SPIN  2
     eigenvalues:
       0.695  0.695  0.723  0.796  0.796
     eigenvectors (columns):
       0.172  0.002 -0.000  0.162  0.972
      -0.409  0.693 -0.577  0.131  0.049
      -0.395 -0.701 -0.577 -0.108  0.089
       0.002 -0.172  0.000  0.972 -0.162
      -0.804 -0.008  0.577  0.023  0.138
     occupation matrix ns (before diag.):
       0.793  0.007  0.007 -0.000  0.014
       0.007  0.707  0.008  0.012 -0.008
       0.007  0.008  0.707 -0.012 -0.008
      -0.000  0.012 -0.012  0.793 -0.000
       0.014 -0.008 -0.008 -0.000  0.707

     Number of occupied Hubbard levels =    8.9714

     HUBBARD ENERGY =    0.9443  (Ry)

     total cpu time spent up to now is       10.6 secs

 ------ SPIN UP ------------


          k = 0.0000 0.0000 0.0000     band energies (ev):

   -68.0090 -66.0031 -29.6581 -29.5875 -29.5874 -27.7683 -27.7048 -27.7047
    -7.1049  -5.8215   6.0420   9.0572   9.0572  10.1483  10.1483  10.1487
    17.0927  20.8870  20.8924  21.1645  21.1708  23.1272  23.4106  23.4146
    25.9222  25.9272  28.7264  28.7281  28.9316

     occupation numbers 
     1.0000   1.0000   1.0000   1.0000   1.0000   1.0000   1.0000   1.0000
     1.0000   1.0000   1.0000   1.0000   1.0000   1.0000   1.0000   1.0000
     1.0000   1.0000   1.0000   1.0000   1.0000   1.0000   1.0000   1.0000
     0.0248   0.0233   0.0000   0.0000   0.0000

          k =-0.1250-0.1250 0.3750     band energies (ev):

   -68.0056 -65.9997 -29.6468 -29.6388 -29.5991 -27.7636 -27.7572 -27.7177
    -6.5669  -5.7995   6.9153   8.1177   8.1501   9.0188   9.5825   9.6552
    19.2642  19.8121  21.5383  21.6302  22.6336  23.9539  24.0383  24.2851
    26.3018  26.5128  26.7366  28.6561  28.9453

     occupation numbers 
     1.0000   1.0000   1.0000   1.0000   1.0000   1.0000   1.0000   1.0000
     1.0000   1.0000   1.0000   1.0000   1.0000   1.0000   1.0000   1.0000
     1.0000   1.0000   1.0000   1.0000   1.0000   1.0000   1.0000   1.0000
     0.0000   0.0000   0.0000   0.0000   0.0000

          k = 0.2500 0.2500-0.7500     band energies (ev):

   -68.0027 -65.9957 -29.6904 -29.6345 -29.6106 -27.8209 -27.7471 -27.7306
    -5.8891  -5.8506   6.8874   6.9995   8.3871   8.4965   9.0437   9.1543
    18.8708  20.7006  22.0274  22.7998  24.0463  24.0953  24.8591  26.0117
    26.5269  26.7089  27.5892  28.1097  30.1685

     occupation numbers 
     1.0000   1.0000   1.0000   1.0000   1.0000   1.0000   1.0000   1.0000
     1.0000   1.0000   1.0000   1.0000   1.0000   1.0000   1.0000   1.0000
     1.0000   1.0000   1.0000   1.0000   1.0000   1.0000   0.9998   0.0076
     0.0000   0.0000   0.0000   0.0000   0.0000

          k =-0.2500 0.2500 0.2500     band energies (ev):

   -68.0057 -65.9994 -29.6466 -29.6393 -29.5992 -27.7639 -27.7569 -27.7177
    -6.5068  -5.8692   6.9432   7.8530   8.4332   9.0891   9.5772   9.5811
    19.2564  19.5836  21.1676  22.3452  22.4420  23.5347  24.2621  24.4393
    26.0744  26.8907  26.9720  28.0736  28.6098

     occupation numbers 
     1.0000   1.0000   1.0000   1.0000   1.0000   1.0000   1.0000   1.0000
     1.0000   1.0000   1.0000   1.0000   1.0000   1.0000   1.0000   1.0000
     1.0000   1.0000   1.0000   1.0000   1.0000   1.0000   1.0000   1.0000
     0.0029   0.0000   0.0000   0.0000   0.0000

          k = 0.1250 0.6250-0.8750     band energies (ev):

   -68.0021 -65.9958 -29.6708 -29.6357 -29.6305 -27.7979 -27.7536 -27.7460
    -5.9384  -5.8029   6.9214   7.3072   8.1038   8.6365   8.8202   9.0733
    19.8202  20.2564  21.6454  22.6523  24.0690  24.5925  25.0178  25.2646
    25.8790  27.4930  27.7585  28.2796  29.3779

     occupation numbers 
     1.0000   1.0000   1.0000   1.0000   1.0000   1.0000   1.0000   1.0000
     1.0000   1.0000   1.0000   1.0000   1.0000   1.0000   1.0000   1.0000
     1.0000   1.0000   1.0000   1.0000   1.0000   1.0000   0.9969   0.9270
     0.0410   0.0000   0.0000   0.0000   0.0000

          k = 0.0000 0.5000-0.5000     band energies (ev):

   -68.0014 -65.9962 -29.6705 -29.6354 -29.6307 -27.7984 -27.7538 -27.7458
    -5.9672  -5.7758   7.0179   7.8263   7.8335   8.4238   8.5302   9.1271
    20.4398  20.8139  21.3434  22.1257  23.8591  24.7523  24.7743  24.8258
    25.7684  27.8574  28.4123  28.5732  29.4228

     occupation numbers 
     1.0000   1.0000   1.0000   1.0000   1.0000   1.0000   1.0000   1.0000
     1.0000   1.0000   1.0000   1.0000   1.0000   1.0000   1.0000   1.0000
     1.0000   1.0000   1.0000   1.0000   1.0000   1.0000   1.0000   0.9999
     0.1222   0.0000   0.0000   0.0000   0.0000

          k = 0.5000-0.5000-0.5000     band energies (ev):

   -68.0017 -65.9963 -29.6911 -29.6354 -29.6108 -27.8197 -27.7455 -27.7305
    -5.9151  -5.8225   6.0417   6.9975   9.0617   9.0689   9.1331   9.1349
    17.3169  20.8880  22.1331  22.9808  23.9766  24.7670  24.7810  25.3389
    25.6294  27.2713  28.2983  29.3246  29.4316

     occupation numbers 
     1.0000   1.0000   1.0000   1.0000   1.0000   1.0000   1.0000   1.0000
     1.0000   1.0000   1.0000   1.0000   1.0000   1.0000   1.0000   1.0000
     1.0000   1.0000   1.0000   1.0000   1.0000   1.0000   1.0000   0.8572
     0.3293   0.0000   0.0000   0.0000   0.0000

          k = 0.1250 0.1250 0.1250     band energies (ev):

   -68.0089 -66.0027 -29.6569 -29.5875 -29.5874 -27.7701 -27.7048 -27.7048
    -6.9371  -6.0328   6.5511   9.1936   9.1937   9.3805   9.9771   9.9772
    17.8889  20.2396  20.9531  21.3986  21.4002  22.7435  23.6312  23.6336
    25.4099  25.4150  27.8055  27.8087  29.8177

     occupation numbers 
     1.0000   1.0000   1.0000   1.0000   1.0000   1.0000   1.0000   1.0000
     1.0000   1.0000   1.0000   1.0000   1.0000   1.0000   1.0000   1.0000
     1.0000   1.0000   1.0000   1.0000   1.0000   1.0000   1.0000   1.0000
     0.7576   0.7493   0.0000   0.0000   0.0000

          k = 0.5000 0.5000-1.0000     band energies (ev):

   -68.0057 -65.9995 -29.6463 -29.6390 -29.5992 -27.7633 -27.7584 -27.7178
    -6.4144  -5.9670   7.0153   7.7506   8.5228   9.1193   9.5438   9.5474
    18.8775  19.8864  21.0570  21.4628  22.7812  24.0543  24.3802  24.7642
    26.0291  26.1864  27.2681  28.4971  28.8639

     occupation numbers 
     1.0000   1.0000   1.0000   1.0000   1.0000   1.0000   1.0000   1.0000
     1.0000   1.0000   1.0000   1.0000   1.0000   1.0000   1.0000   1.0000
     1.0000   1.0000   1.0000   1.0000   1.0000   1.0000   1.0000   1.0000
     0.0059   0.0004   0.0000   0.0000   0.0000

          k = 0.3750 0.3750-0.6250     band energies (ev):

   -68.0028 -65.9948 -29.6907 -29.6352 -29.6108 -27.8203 -27.7462 -27.7305
    -5.9046  -5.8340   6.3281   7.0890   8.7480   8.8349   9.0517   9.1442
    17.9456  21.0093  22.0522  23.0060  24.0347  24.2374  24.8125  25.5528
    25.8271  27.4289  28.1408  28.3062  29.0226

     occupation numbers 
     1.0000   1.0000   1.0000   1.0000   1.0000   1.0000   1.0000   1.0000
     1.0000   1.0000   1.0000   1.0000   1.0000   1.0000   1.0000   1.0000
     1.0000   1.0000   1.0000   1.0000   1.0000   1.0000   0.9999   0.4826
     0.0709   0.0000   0.0000   0.0000   0.0000

          k = 0.8750-0.6250-0.6250     band energies (ev):

   -68.0055 -65.9994 -29.6461 -29.6394 -29.5992 -27.7634 -27.7580 -27.7177
    -6.2636  -6.1272   7.2226   7.3434   9.0687   9.2378   9.2684   9.3872
    18.7254  20.1970  20.9434  21.2120  22.5713  24.2788  24.5336  24.8044
    25.7093  26.5896  27.4191  27.9378  29.3604

     occupation numbers 
     1.0000   1.0000   1.0000   1.0000   1.0000   1.0000   1.0000   1.0000
     1.0000   1.0000   1.0000   1.0000   1.0000   1.0000   1.0000   1.0000
     1.0000   1.0000   1.0000   1.0000   1.0000   1.0000   1.0000   0.9999
     0.1957   0.0000   0.0000   0.0000   0.0000

          k = 0.7500-0.7500-0.2500     band energies (ev):

   -68.0023 -65.9960 -29.6710 -29.6358 -29.6303 -27.7975 -27.7534 -27.7460
    -5.8734  -5.8662   6.9399   6.9454   8.4345   8.4440   9.0618   9.1436
    19.5558  19.6336  22.3115  22.4328  24.2002  25.0255  25.2569  25.4730
    26.3474  26.7632  27.2029  28.0732  29.1448

     occupation numbers 
     1.0000   1.0000   1.0000   1.0000   1.0000   1.0000   1.0000   1.0000
     1.0000   1.0000   1.0000   1.0000   1.0000   1.0000   1.0000   1.0000
     1.0000   1.0000   1.0000   1.0000   1.0000   0.9965   0.9324   0.6446
     0.0000   0.0000   0.0000   0.0000   0.0000

          k =-0.2500-0.2500-0.2500     band energies (ev):

   -68.0083 -66.0026 -29.6558 -29.5876 -29.5875 -27.7722 -27.7048 -27.7048
    -6.5358  -6.4764   7.7725   7.9419   9.4609   9.4609   9.6754   9.6755
    19.2873  19.4235  20.5304  21.6745  21.6765  22.3572  23.8881  23.8896
    24.8115  24.8507  27.2600  27.2616  31.4645

     occupation numbers 
     1.0000   1.0000   1.0000   1.0000   1.0000   1.0000   1.0000   1.0000
     1.0000   1.0000   1.0000   1.0000   1.0000   1.0000   1.0000   1.0000
     1.0000   1.0000   1.0000   1.0000   1.0000   1.0000   1.0000   1.0000
     0.9999   0.9998   0.0000   0.0000   0.0000

 ------ SPIN DOWN ----------


          k = 0.0000 0.0000 0.0000     band energies (ev):

   -68.1320 -65.8804 -29.7697 -29.7110 -29.7110 -27.6576 -27.5818 -27.5817
    -7.1038  -5.8206   6.0442   9.0681   9.0681  10.1489  10.1491  10.1501
    17.0825  20.6503  20.8860  21.0846  21.0955  23.2632  23.2640  23.4249
    26.0139  26.0217  28.8450  28.8458  28.8527

     occupation numbers 
     1.0000   1.0000   1.0000   1.0000   1.0000   1.0000   1.0000   1.0000
     1.0000   1.0000   1.0000   1.0000   1.0000   1.0000   1.0000   1.0000
     1.0000   1.0000   1.0000   1.0000   1.0000   1.0000   1.0000   1.0000
     0.0073   0.0066   0.0000   0.0000   0.0000

          k =-0.1250-0.1250 0.3750     band energies (ev):

   -68.1289 -65.8766 -29.7621 -29.7579 -29.7225 -27.6472 -27.6409 -27.5950
    -6.5655  -5.7974   6.9171   8.1283   8.1522   9.0255   9.5755   9.6589
    19.2759  19.6353  21.4599  21.6908  22.5454  23.8730  24.0531  24.0725
    26.2892  26.5926  26.8226  28.8264  29.0571

     occupation numbers 
     1.0000   1.0000   1.0000   1.0000   1.0000   1.0000   1.0000   1.0000
     1.0000   1.0000   1.0000   1.0000   1.0000   1.0000   1.0000   1.0000
     1.0000   1.0000   1.0000   1.0000   1.0000   1.0000   1.0000   1.0000
     0.0001   0.0000   0.0000   0.0000   0.0000

          k = 0.2500 0.2500-0.7500     band energies (ev):

   -68.1256 -65.8729 -29.8115 -29.7472 -29.7338 -27.7010 -27.6348 -27.6081
    -5.8865  -5.8478   6.9231   6.9688   8.3781   8.5054   9.0372   9.1718
    18.7521  20.7545  22.0148  22.8316  23.8994  23.9684  24.6959  25.8218
    26.5068  26.8802  27.6410  28.2093  30.5291

     occupation numbers 
     1.0000   1.0000   1.0000   1.0000   1.0000   1.0000   1.0000   1.0000
     1.0000   1.0000   1.0000   1.0000   1.0000   1.0000   1.0000   1.0000
     1.0000   1.0000   1.0000   1.0000   1.0000   1.0000   1.0000   0.0746
     0.0000   0.0000   0.0000   0.0000   0.0000

          k =-0.2500 0.2500 0.2500     band energies (ev):

   -68.1287 -65.8765 -29.7621 -29.7582 -29.7224 -27.6474 -27.6405 -27.5949
    -6.5053  -5.8671   6.9453   7.8585   8.4411   9.0984   9.5729   9.5782
    19.2977  19.4107  21.1196  22.3083  22.3588  23.6942  24.0741  24.2671
    26.1686  26.9239  26.9881  28.2230  28.8174

     occupation numbers 
     1.0000   1.0000   1.0000   1.0000   1.0000   1.0000   1.0000   1.0000
     1.0000   1.0000   1.0000   1.0000   1.0000   1.0000   1.0000   1.0000
     1.0000   1.0000   1.0000   1.0000   1.0000   1.0000   1.0000   1.0000
     0.0006   0.0000   0.0000   0.0000   0.0000

          k = 0.1250 0.6250-0.8750     band energies (ev):

   -68.1253 -65.8727 -29.7923 -29.7539 -29.7475 -27.6773 -27.6355 -27.6303
    -5.9368  -5.7994   6.9237   7.3112   8.1044   8.6426   8.8207   9.0719
    19.7214  20.1774  21.6687  22.7379  23.9514  24.4357  24.8875  25.2939
    25.7929  27.4727  27.8395  28.4114  29.4982

     occupation numbers 
     1.0000   1.0000   1.0000   1.0000   1.0000   1.0000   1.0000   1.0000
     1.0000   1.0000   1.0000   1.0000   1.0000   1.0000   1.0000   1.0000
     1.0000   1.0000   1.0000   1.0000   1.0000   1.0000   0.9997   0.9035
     0.0982   0.0000   0.0000   0.0000   0.0000

          k = 0.0000 0.5000-0.5000     band energies (ev):

   -68.1256 -65.8727 -29.7921 -29.7539 -29.7473 -27.6776 -27.6359 -27.6300
    -5.9653  -5.7729   7.0199   7.8347   7.8353   8.4279   8.5262   9.1274
    20.2632  20.7374  21.3387  22.3130  23.7441  24.5495  24.6596  24.7367
    25.6890  27.8810  28.5461  28.7940  29.2915

     occupation numbers 
     1.0000   1.0000   1.0000   1.0000   1.0000   1.0000   1.0000   1.0000
     1.0000   1.0000   1.0000   1.0000   1.0000   1.0000   1.0000   1.0000
     1.0000   1.0000   1.0000   1.0000   1.0000   1.0000   1.0000   1.0000
     0.2261   0.0000   0.0000   0.0000   0.0000

          k = 0.5000-0.5000-0.5000     band energies (ev):

   -68.1258 -65.8728 -29.8122 -29.7480 -29.7339 -27.6999 -27.6336 -27.6080
    -5.9117  -5.8209   6.0449   6.9989   9.0674   9.0687   9.1349   9.1351
    17.2602  20.8752  22.1176  22.9356  23.8594  24.6203  24.7911  25.3349
    25.4677  27.2637  28.4188  29.4375  29.4808

     occupation numbers 
     1.0000   1.0000   1.0000   1.0000   1.0000   1.0000   1.0000   1.0000
     1.0000   1.0000   1.0000   1.0000   1.0000   1.0000   1.0000   1.0000
     1.0000   1.0000   1.0000   1.0000   1.0000   1.0000   1.0000   0.8618
     0.6549   0.0000   0.0000   0.0000   0.0000

          k = 0.1250 0.1250 0.1250     band energies (ev):

   -68.1320 -65.8802 -29.7687 -29.7110 -29.7110 -27.6592 -27.5818 -27.5818
    -6.9358  -6.0321   6.5537   9.2082   9.2083   9.3790   9.9737   9.9738
    17.8827  20.1679  20.7592  21.3133  21.3157  23.0664  23.4647  23.4660
    25.4940  25.4990  27.9483  27.9504  29.7358

     occupation numbers 
     1.0000   1.0000   1.0000   1.0000   1.0000   1.0000   1.0000   1.0000
     1.0000   1.0000   1.0000   1.0000   1.0000   1.0000   1.0000   1.0000
     1.0000   1.0000   1.0000   1.0000   1.0000   1.0000   1.0000   1.0000
     0.6031   0.5931   0.0000   0.0000   0.0000

          k = 0.5000 0.5000-1.0000     band energies (ev):

   -68.1288 -65.8767 -29.7624 -29.7573 -29.7226 -27.6478 -27.6410 -27.5951
    -6.4135  -5.9642   7.0187   7.7541   8.5264   9.1280   9.5450   9.5454
    18.7953  19.8837  20.9690  21.4817  22.6844  23.8884  24.2230  24.8638
    26.0561  26.2782  27.3428  28.6666  28.9541

     occupation numbers 
     1.0000   1.0000   1.0000   1.0000   1.0000   1.0000   1.0000   1.0000
     1.0000   1.0000   1.0000   1.0000   1.0000   1.0000   1.0000   1.0000
     1.0000   1.0000   1.0000   1.0000   1.0000   1.0000   1.0000   0.9998
     0.0039   0.0001   0.0000   0.0000   0.0000

          k = 0.3750 0.3750-0.6250     band energies (ev):

   -68.1257 -65.8724 -29.8119 -29.7476 -29.7340 -27.7005 -27.6343 -27.6081
    -5.9014  -5.8320   6.3326   7.0891   8.7486   8.8349   9.0504   9.1546
    17.8745  21.0064  22.0314  23.0275  23.9129  24.1317  24.6569  25.4545
    25.8491  27.3560  28.2654  28.4335  29.1273

     occupation numbers 
     1.0000   1.0000   1.0000   1.0000   1.0000   1.0000   1.0000   1.0000
     1.0000   1.0000   1.0000   1.0000   1.0000   1.0000   1.0000   1.0000
     1.0000   1.0000   1.0000   1.0000   1.0000   1.0000   1.0000   0.6797
     0.0566   0.0000   0.0000   0.0000   0.0000

          k = 0.8750-0.6250-0.6250     band energies (ev):

   -68.1286 -65.8767 -29.7624 -29.7576 -29.7226 -27.6479 -27.6406 -27.5950
    -6.2643  -6.1230   7.2301   7.3424   9.0972   9.2108   9.3016   9.3641
    18.6600  20.1484  20.9380  21.1673  22.4796  24.0907  24.4208  24.8288
    25.7475  26.6850  27.5457  28.1045  29.4182

     occupation numbers 
     1.0000   1.0000   1.0000   1.0000   1.0000   1.0000   1.0000   1.0000
     1.0000   1.0000   1.0000   1.0000   1.0000   1.0000   1.0000   1.0000
     1.0000   1.0000   1.0000   1.0000   1.0000   1.0000   1.0000   0.9999
     0.1455   0.0000   0.0000   0.0000   0.0000

          k = 0.7500-0.7500-0.2500     band energies (ev):

   -68.1256 -65.8726 -29.7926 -29.7540 -29.7473 -27.6769 -27.6351 -27.6307
    -5.8816  -5.8532   6.9452   6.9459   8.4058   8.4749   9.0843   9.1258
    19.4365  19.6089  22.2532  22.5400  24.0581  24.8554  25.0901  25.5251
    26.5090  26.5536  27.2401  28.2060  29.2922

     occupation numbers 
     1.0000   1.0000   1.0000   1.0000   1.0000   1.0000   1.0000   1.0000
     1.0000   1.0000   1.0000   1.0000   1.0000   1.0000   1.0000   1.0000
     1.0000   1.0000   1.0000   1.0000   1.0000   0.9998   0.9909   0.5399
     0.0000   0.0000   0.0000   0.0000   0.0000

          k =-0.2500-0.2500-0.2500     band energies (ev):

   -68.1322 -65.8797 -29.7676 -29.7111 -29.7111 -27.6611 -27.5819 -27.5819
    -6.5303  -6.4800   7.8144   7.9008   9.5186   9.5187   9.6285   9.6285
    19.2399  19.5345  20.1683  21.5752  21.5779  22.6614  23.6974  23.6981
    24.8896  24.8906  27.4430  27.4460  31.2589

     occupation numbers 
     1.0000   1.0000   1.0000   1.0000   1.0000   1.0000   1.0000   1.0000
     1.0000   1.0000   1.0000   1.0000   1.0000   1.0000   1.0000   1.0000
     1.0000   1.0000   1.0000   1.0000   1.0000   1.0000   1.0000   1.0000
     0.9997   0.9997   0.0000   0.0000   0.0000

     the Fermi energy is    25.5444 ev

!    total energy              =    -740.41064301 Ry
     Harris-Foulkes estimate   =    -759.56262750 Ry
     estimated scf accuracy    <      49.85177967 Ry
     smearing contrib. (-TS)   =      -0.00705357 Ry
     internal energy E=F+TS    =    -740.40358944 Ry

     The total energy is F=E-TS. E is the sum of the following terms:
     one-electron contribution =    -282.97283701 Ry
     hartree contribution      =     241.71744490 Ry
     xc contribution           =     -85.95197870 Ry
     ewald contribution        =    -478.65259034 Ry
     Hubbard energy            =       0.94425509 Ry
     scf correction            =    -135.48788339 Ry
 
     Band energy sum           =     -12.94276556 Ry

     total magnetization       =    -0.03 Bohr mag/cell
     absolute magnetization    =     6.10 Bohr mag/cell

     iteration #  2     ecut=    64.00 Ry     beta= 0.25
     Davidson diagonalization with overlap

---- Real-time Memory Report at c_bands before calling an iterative solver
           979 MiB given to the printing process from OS
           859 MiB allocation reported by mallinfo(arena+hblkhd)
         59397 MiB available memory on the node where the printing process lives
------------------
     ethr =  1.00E-02,  avg # of iterations =  4.4

     =================== HUBBARD OCCUPATIONS ===================
     ------------------------ ATOM    1 ------------------------
     Tr[ns(  1)] (up, down, total) =   4.96631  4.13629  9.10261
     Atomic magnetic moment for atom   1 =   0.83002
     SPIN  1
     eigenvalues:
       0.987  0.987  0.997  0.997  0.997
     eigenvectors (columns):
       0.135 -0.990  0.031 -0.010  0.000
       0.024 -0.010 -0.599 -0.554 -0.577
      -0.021 -0.016 -0.181  0.796 -0.577
       0.990  0.135  0.010  0.031 -0.000
       0.004 -0.026 -0.780  0.241  0.577
     occupation matrix ns (before diag.):
       0.987 -0.000 -0.000 -0.000 -0.000
      -0.000  0.997  0.000 -0.000 -0.000
      -0.000  0.000  0.997  0.000 -0.000
      -0.000 -0.000  0.000  0.987 -0.000
      -0.000 -0.000 -0.000 -0.000  0.997
     SPIN  2
     eigenvalues:
       0.590  0.590  0.985  0.985  0.985
     eigenvectors (columns):
      -0.059  0.998 -0.000 -0.004  0.001
      -0.003 -0.002  0.577 -0.598 -0.556
       0.003 -0.002  0.577 -0.183  0.796
       0.998  0.059  0.000 -0.001 -0.004
       0.000 -0.003 -0.577 -0.781  0.239
     occupation matrix ns (before diag.):
       0.590  0.001  0.001 -0.000  0.001
       0.001  0.985 -0.000  0.001  0.000
       0.001 -0.000  0.985 -0.001  0.000
      -0.000  0.001 -0.001  0.590 -0.000
       0.001  0.000  0.000 -0.000  0.985
     ------------------------ ATOM    2 ------------------------
     Tr[ns(  2)] (up, down, total) =   3.99425  4.96539  8.95964
     Atomic magnetic moment for atom   2 =  -0.97113
     SPIN  1
     eigenvalues:
       0.522  0.522  0.983  0.983  0.984
     eigenvectors (columns):
      -0.222  0.975 -0.012  0.005 -0.000
       0.010 -0.003 -0.653 -0.491 -0.577
      -0.008 -0.007 -0.099  0.810 -0.577
      -0.975 -0.222 -0.005 -0.012 -0.000
       0.002 -0.010 -0.751  0.320  0.577
     occupation matrix ns (before diag.):
       0.522  0.002  0.002 -0.000  0.005
       0.002  0.984  0.000  0.004 -0.000
       0.002  0.000  0.984 -0.004 -0.000
      -0.000  0.004 -0.004  0.522 -0.000
       0.005 -0.000 -0.000 -0.000  0.984
     SPIN  2
     eigenvalues:
       0.987  0.987  0.997  0.997  0.997
     eigenvectors (columns):
      -0.186 -0.982 -0.020 -0.007  0.000
      -0.017 -0.006  0.622 -0.529 -0.577
       0.013 -0.011  0.147  0.803 -0.577
      -0.982  0.186 -0.007  0.020 -0.000
      -0.003 -0.017  0.769  0.274  0.577
     occupation matrix ns (before diag.):
       0.987 -0.000 -0.000 -0.000 -0.000
      -0.000  0.997  0.000 -0.000 -0.000
      -0.000  0.000  0.997  0.000 -0.000
      -0.000 -0.000  0.000  0.987 -0.000
      -0.000 -0.000 -0.000 -0.000  0.997

     Number of occupied Hubbard levels =   18.0622

     HUBBARD ENERGY =    1.0602  (Ry)

     total cpu time spent up to now is       15.7 secs

 ------ SPIN UP ------------


          k = 0.0000 0.0000 0.0000     band energies (ev):

   -94.2374 -91.4241 -54.4645 -54.4644 -54.4635 -51.7421 -51.7119 -51.7119
    -3.1539  -1.1084   5.4900   5.7805   5.7806   6.8077   6.8077   8.8723
    12.4743  12.4745  13.2360  13.4272  13.4273  15.1470  15.1470  15.1654
    17.1087  17.3286  17.3287  20.2458  26.8778

     occupation numbers 
     1.0000   1.0000   1.0000   1.0000   1.0000   1.0000   1.0000   1.0000
     1.0000   1.0000   1.0000   1.0000   1.0000   1.0000   1.0000   1.0000
     1.0000   1.0000   1.0000   1.0000   1.0000   0.8345   0.8345   0.8097
     0.0000   0.0000   0.0000   0.0000   0.0000

          k =-0.1250-0.1250 0.3750     band energies (ev):

   -94.2366 -91.4232 -54.4740 -54.4672 -54.4624 -51.7410 -51.7226 -51.7149
    -2.3611  -1.0446   5.7396   5.9468   6.1744   6.5917   6.8532   9.5736
    11.1152  11.6454  12.6927  12.8846  13.1106  13.8261  14.1868  15.2109
    16.2177  16.7093  20.9581  23.0728  25.1656

     occupation numbers 
     1.0000   1.0000   1.0000   1.0000   1.0000   1.0000   1.0000   1.0000
     1.0000   1.0000   1.0000   1.0000   1.0000   1.0000   1.0000   1.0000
     1.0000   1.0000   1.0000   1.0000   1.0000   1.0000   1.0000   0.7390
     0.0000   0.0000   0.0000   0.0000   0.0000

          k = 0.2500 0.2500-0.7500     band energies (ev):

   -94.2359 -91.4223 -54.4834 -54.4696 -54.4612 -51.7398 -51.7331 -51.7176
    -1.3191  -1.0000   5.8942   6.0091   6.0940   6.8123   7.0498   8.9976
    10.3914  10.9018  12.0562  13.0798  13.3899  13.5635  13.8024  14.7006
    16.0164  16.3543  22.5560  22.8326  25.0350

     occupation numbers 
     1.0000   1.0000   1.0000   1.0000   1.0000   1.0000   1.0000   1.0000
     1.0000   1.0000   1.0000   1.0000   1.0000   1.0000   1.0000   1.0000
     1.0000   1.0000   1.0000   1.0000   1.0000   1.0000   1.0000   0.9995
     0.0002   0.0000   0.0000   0.0000   0.0000

          k =-0.2500 0.2500 0.2500     band energies (ev):

   -94.2367 -91.4232 -54.4741 -54.4672 -54.4624 -51.7410 -51.7226 -51.7149
    -2.2770  -1.1619   5.9173   5.9533   6.0433   6.5974   6.8505   9.6259
    10.8716  11.6758  12.5861  12.9472  13.2678  13.4323  14.5687  15.2796
    16.7051  16.7175  20.3625  22.7473  25.1745

     occupation numbers 
     1.0000   1.0000   1.0000   1.0000   1.0000   1.0000   1.0000   1.0000
     1.0000   1.0000   1.0000   1.0000   1.0000   1.0000   1.0000   1.0000
     1.0000   1.0000   1.0000   1.0000   1.0000   1.0000   1.0000   0.6115
     0.0000   0.0000   0.0000   0.0000   0.0000

          k = 0.1250 0.6250-0.8750     band energies (ev):

   -94.2351 -91.4222 -54.4800 -54.4731 -54.4612 -51.7398 -51.7292 -51.7215
    -1.3089  -1.0271   5.9318   6.2057   6.3498   6.4971   6.7438   9.6341
    10.1167  11.1732  11.8821  12.7472  13.2429  13.5694  13.8540  14.2475
    15.8662  16.7208  23.0894  23.2782  25.3565

     occupation numbers 
     1.0000   1.0000   1.0000   1.0000   1.0000   1.0000   1.0000   1.0000
     1.0000   1.0000   1.0000   1.0000   1.0000   1.0000   1.0000   1.0000
     1.0000   1.0000   1.0000   1.0000   1.0000   1.0000   1.0000   1.0000
     0.0028   0.0000   0.0000   0.0000   0.0000

          k = 0.0000 0.5000-0.5000     band energies (ev):

   -94.2347 -91.4223 -54.4799 -54.4731 -54.4612 -51.7397 -51.7292 -51.7214
    -1.3633  -0.9831   5.8789   6.2578   6.3569   6.5333   6.7619   9.9871
    10.3751  10.7136  12.1247  12.3126  13.2754  13.3491  13.6214  14.2885
    15.4481  17.3053  22.9754  23.9589  25.8849

     occupation numbers 
     1.0000   1.0000   1.0000   1.0000   1.0000   1.0000   1.0000   1.0000
     1.0000   1.0000   1.0000   1.0000   1.0000   1.0000   1.0000   1.0000
     1.0000   1.0000   1.0000   1.0000   1.0000   1.0000   1.0000   1.0000
     0.2767   0.0000   0.0000   0.0000   0.0000

          k = 0.5000-0.5000-0.5000     band energies (ev):

   -94.2356 -91.4220 -54.4834 -54.4692 -54.4610 -51.7394 -51.7330 -51.7173
    -1.1907  -1.1098   5.7277   6.0044   6.1899   6.7895   7.0461   9.0287
     9.2918  12.3392  12.7842  13.1195  13.1352  13.4905  13.6753  13.7225
    17.3803  17.4582  20.2558  20.3478  25.5964

     occupation numbers 
     1.0000   1.0000   1.0000   1.0000   1.0000   1.0000   1.0000   1.0000
     1.0000   1.0000   1.0000   1.0000   1.0000   1.0000   1.0000   1.0000
     1.0000   1.0000   1.0000   1.0000   1.0000   1.0000   1.0000   1.0000
     0.0000   0.0000   0.0000   0.0000   0.0000

          k = 0.1250 0.1250 0.1250     band energies (ev):

   -94.2374 -91.4240 -54.4647 -54.4647 -54.4636 -51.7424 -51.7121 -51.7121
    -2.9186  -1.4934   5.6949   5.7897   5.7897   6.8124   6.8125   9.3289
    12.3778  12.3779  12.8229  13.3973  13.3976  13.8578  15.4021  15.4021
    17.1631  17.1633  18.7190  20.5251  26.5831

     occupation numbers 
     1.0000   1.0000   1.0000   1.0000   1.0000   1.0000   1.0000   1.0000
     1.0000   1.0000   1.0000   1.0000   1.0000   1.0000   1.0000   1.0000
     1.0000   1.0000   1.0000   1.0000   1.0000   1.0000   0.3619   0.3619
     0.0000   0.0000   0.0000   0.0000   0.0000

          k = 0.5000 0.5000-1.0000     band energies (ev):

   -94.2366 -91.4232 -54.4741 -54.4672 -54.4624 -51.7411 -51.7227 -51.7149
    -2.1015  -1.3625   5.6486   5.9498   6.2051   6.5681   6.8566   9.7474
    11.3684  11.6180  12.7121  13.0190  13.1072  13.7224  14.6285  14.7710
    15.2647  17.2170  21.9558  22.9720  25.8528

     occupation numbers 
     1.0000   1.0000   1.0000   1.0000   1.0000   1.0000   1.0000   1.0000
     1.0000   1.0000   1.0000   1.0000   1.0000   1.0000   1.0000   1.0000
     1.0000   1.0000   1.0000   1.0000   1.0000   1.0000   0.9999   0.9983
     0.6408   0.0000   0.0000   0.0000   0.0000

          k = 0.3750 0.3750-0.6250     band energies (ev):

   -94.2358 -91.4219 -54.4834 -54.4696 -54.4612 -51.7398 -51.7331 -51.7176
    -1.2718  -1.0381   5.8331   6.0068   6.1266   6.7820   7.0478   8.9740
     9.7596  11.7720  12.2843  12.9507  13.4951  13.5319  13.8271  14.0532
    16.6083  16.9430  21.2418  21.5930  26.0343

     occupation numbers 
     1.0000   1.0000   1.0000   1.0000   1.0000   1.0000   1.0000   1.0000
     1.0000   1.0000   1.0000   1.0000   1.0000   1.0000   1.0000   1.0000
     1.0000   1.0000   1.0000   1.0000   1.0000   1.0000   1.0000   1.0000
     0.0000   0.0000   0.0000   0.0000   0.0000

          k = 0.8750-0.6250-0.6250     band energies (ev):

   -94.2366 -91.4231 -54.4741 -54.4672 -54.4624 -51.7411 -51.7227 -51.7149
    -1.8807  -1.6154   5.7602   5.9564   6.1369   6.5661   6.8538   9.8932
    10.8236  11.8105  12.6235  13.0518  13.1386  13.8239  14.5222  14.6952
    15.9376  17.2224  21.5043  22.3910  25.9996

     occupation numbers 
     1.0000   1.0000   1.0000   1.0000   1.0000   1.0000   1.0000   1.0000
     1.0000   1.0000   1.0000   1.0000   1.0000   1.0000   1.0000   1.0000
     1.0000   1.0000   1.0000   1.0000   1.0000   1.0000   1.0000   0.9996
     0.0009   0.0000   0.0000   0.0000   0.0000

          k = 0.7500-0.7500-0.2500     band energies (ev):

   -94.2358 -91.4223 -54.4800 -54.4731 -54.4612 -51.7398 -51.7292 -51.7215
    -1.2225  -1.1029   6.0637   6.0808   6.3624   6.4287   6.7275   9.4217
     9.8878  11.6205  12.0300  12.4365  13.2895  13.6010  14.2358  14.5276
    16.0916  16.3072  22.6911  22.7130  25.0415

     occupation numbers 
     1.0000   1.0000   1.0000   1.0000   1.0000   1.0000   1.0000   1.0000
     1.0000   1.0000   1.0000   1.0000   1.0000   1.0000   1.0000   1.0000
     1.0000   1.0000   1.0000   1.0000   1.0000   1.0000   1.0000   1.0000
     0.0000   0.0000   0.0000   0.0000   0.0000

          k =-0.2500-0.2500-0.2500     band energies (ev):

   -94.2374 -91.4241 -54.4648 -54.4648 -54.4635 -51.7424 -51.7121 -51.7121
    -2.3637  -2.1860   5.7983   5.7984   5.8674   6.8170   6.8171  10.2741
    11.5293  12.2870  12.2875  13.3707  13.3711  13.4776  15.6912  15.6912
    16.9428  16.9429  20.2789  20.4246  26.9852

     occupation numbers 
     1.0000   1.0000   1.0000   1.0000   1.0000   1.0000   1.0000   1.0000
     1.0000   1.0000   1.0000   1.0000   1.0000   1.0000   1.0000   1.0000
     1.0000   1.0000   1.0000   1.0000   1.0000   1.0000   0.0317   0.0317
     0.0000   0.0000   0.0000   0.0000   0.0000

 ------ SPIN DOWN ----------


          k = 0.0000 0.0000 0.0000     band energies (ev):

   -93.8300 -91.8392 -54.0817 -54.0569 -54.0569 -52.1314 -52.1268 -52.1268
    -3.1472  -1.1072   5.8527   5.9365   5.9365   7.1350   7.1351   8.8532
    12.1642  12.1645  12.9547  13.1052  13.1054  15.1491  15.1491  15.1600
    17.1097  17.2842  17.2843  20.2560  26.8837

     occupation numbers 
     1.0000   1.0000   1.0000   1.0000   1.0000   1.0000   1.0000   1.0000
     1.0000   1.0000   1.0000   1.0000   1.0000   1.0000   1.0000   1.0000
     1.0000   1.0000   1.0000   1.0000   1.0000   0.8319   0.8319   0.8172
     0.0000   0.0000   0.0000   0.0000   0.0000

          k =-0.1250-0.1250 0.3750     band energies (ev):

   -93.8292 -91.8383 -54.0806 -54.0664 -54.0596 -52.1375 -52.1303 -52.1298
    -2.3554  -1.0313   5.9513   6.0868   6.5291   6.8764   7.1953   9.5011
    10.8993  11.6010  12.4552  12.5821  12.8509  13.6428  14.1585  15.1386
    16.0509  16.6481  20.9475  23.0823  25.1769

     occupation numbers 
     1.0000   1.0000   1.0000   1.0000   1.0000   1.0000   1.0000   1.0000
     1.0000   1.0000   1.0000   1.0000   1.0000   1.0000   1.0000   1.0000
     1.0000   1.0000   1.0000   1.0000   1.0000   1.0000   1.0000   0.8452
     0.0001   0.0000   0.0000   0.0000   0.0000

          k = 0.2500 0.2500-0.7500     band energies (ev):

   -93.8284 -91.8374 -54.0794 -54.0758 -54.0620 -52.1479 -52.1325 -52.1291
    -1.3114  -0.9761   6.1356   6.1526   6.3398   7.0970   7.3873   8.8925
    10.5247  10.7558  11.8700  12.8083  13.2679  13.3758  13.5156  14.5779
    15.7962  16.2891  22.5208  22.8410  25.0631

     occupation numbers 
     1.0000   1.0000   1.0000   1.0000   1.0000   1.0000   1.0000   1.0000
     1.0000   1.0000   1.0000   1.0000   1.0000   1.0000   1.0000   1.0000
     1.0000   1.0000   1.0000   1.0000   1.0000   1.0000   1.0000   1.0000
     0.0082   0.0000   0.0000   0.0000   0.0000

          k =-0.2500 0.2500 0.2500     band energies (ev):

   -93.8293 -91.8383 -54.0806 -54.0665 -54.0596 -52.1375 -52.1303 -52.1298
    -2.2709  -1.1495   6.0942   6.1003   6.4335   6.8755   7.1920   9.5512
    10.7354  11.5540  12.3441  12.6524  13.0083  13.2069  14.5554  15.1942
    16.5615  16.6544  20.3523  22.6976  25.1145

     occupation numbers 
     1.0000   1.0000   1.0000   1.0000   1.0000   1.0000   1.0000   1.0000
     1.0000   1.0000   1.0000   1.0000   1.0000   1.0000   1.0000   1.0000
     1.0000   1.0000   1.0000   1.0000   1.0000   1.0000   1.0000   0.7664
     0.0000   0.0000   0.0000   0.0000   0.0000

          k = 0.1250 0.6250-0.8750     band energies (ev):

   -93.8279 -91.8374 -54.0794 -54.0724 -54.0655 -52.1441 -52.1363 -52.1290
    -1.3049  -0.9998   6.0770   6.3871   6.6595   6.7918   7.0335   9.6181
    10.0676  11.0959  11.7890  12.4943  13.1112  13.2804  13.6557  14.1425
    15.6706  16.5758  22.9882  23.3320  25.2448

     occupation numbers 
     1.0000   1.0000   1.0000   1.0000   1.0000   1.0000   1.0000   1.0000
     1.0000   1.0000   1.0000   1.0000   1.0000   1.0000   1.0000   1.0000
     1.0000   1.0000   1.0000   1.0000   1.0000   1.0000   1.0000   1.0000
     0.0402   0.0000   0.0000   0.0000   0.0000

          k = 0.0000 0.5000-0.5000     band energies (ev):

   -93.8277 -91.8373 -54.0794 -54.0724 -54.0655 -52.1441 -52.1363 -52.1290
    -1.3539  -0.9617   6.0190   6.4697   6.7104   6.7635   7.0564  10.0133
    10.2153  10.6508  12.1677  12.1916  13.0406  13.0877  13.3383  14.1291
    15.2275  17.1806  22.9628  23.9296  25.9071

     occupation numbers 
     1.0000   1.0000   1.0000   1.0000   1.0000   1.0000   1.0000   1.0000
     1.0000   1.0000   1.0000   1.0000   1.0000   1.0000   1.0000   1.0000
     1.0000   1.0000   1.0000   1.0000   1.0000   1.0000   1.0000   1.0000
     0.7102   0.0000   0.0000   0.0000   0.0000

          k = 0.5000-0.5000-0.5000     band energies (ev):

   -93.8283 -91.8371 -54.0792 -54.0758 -54.0617 -52.1478 -52.1321 -52.1287
    -1.1645  -1.1064   5.9729   6.1472   6.4636   6.9793   7.3822   9.0993
     9.2967  12.0428  12.4922  13.1261  13.1351  13.2776  13.3608  13.4599
    17.3078  17.3348  20.2558  20.3276  26.8824

     occupation numbers 
     1.0000   1.0000   1.0000   1.0000   1.0000   1.0000   1.0000   1.0000
     1.0000   1.0000   1.0000   1.0000   1.0000   1.0000   1.0000   1.0000
     1.0000   1.0000   1.0000   1.0000   1.0000   1.0000   1.0000   1.0000
     0.0000   0.0000   0.0000   0.0000   0.0000

          k = 0.1250 0.1250 0.1250     band energies (ev):

   -93.8300 -91.8391 -54.0818 -54.0571 -54.0571 -52.1316 -52.1270 -52.1270
    -2.9101  -1.4936   5.9471   5.9471   6.0932   7.1402   7.1402   9.2624
    12.0756  12.0757  12.6092  13.0789  13.0792  13.8018  15.3888  15.3888
    17.1212  17.1213  18.7203  20.5309  26.5722

     occupation numbers 
     1.0000   1.0000   1.0000   1.0000   1.0000   1.0000   1.0000   1.0000
     1.0000   1.0000   1.0000   1.0000   1.0000   1.0000   1.0000   1.0000
     1.0000   1.0000   1.0000   1.0000   1.0000   1.0000   0.3881   0.3881
     0.0000   0.0000   0.0000   0.0000   0.0000

          k = 0.5000 0.5000-1.0000     band energies (ev):

   -93.8292 -91.8383 -54.0806 -54.0665 -54.0595 -52.1375 -52.1304 -52.1298
    -2.1003  -1.3438   5.8045   6.0901   6.6165   6.8590   7.1992   9.6390
    11.1510  11.5460  12.4466  12.7185  12.8927  13.7141  14.5897  14.6548
    15.0139  17.1466  21.9493  22.9702  25.8759

     occupation numbers 
     1.0000   1.0000   1.0000   1.0000   1.0000   1.0000   1.0000   1.0000
     1.0000   1.0000   1.0000   1.0000   1.0000   1.0000   1.0000   1.0000
     1.0000   1.0000   1.0000   1.0000   1.0000   1.0000   0.9999   0.9998
     0.9519   0.0000   0.0000   0.0000   0.0000

          k = 0.3750 0.3750-0.6250     band energies (ev):

   -93.8284 -91.8370 -54.0795 -54.0759 -54.0620 -52.1479 -52.1325 -52.1290
    -1.2604  -1.0190   6.0998   6.1496   6.3523   7.0207   7.3846   8.9548
     9.8033  11.6237  12.0898  12.7667  13.2582  13.3396  13.5863  13.9199
    16.4497  16.8717  21.2212  21.5918  25.9636

     occupation numbers 
     1.0000   1.0000   1.0000   1.0000   1.0000   1.0000   1.0000   1.0000
     1.0000   1.0000   1.0000   1.0000   1.0000   1.0000   1.0000   1.0000
     1.0000   1.0000   1.0000   1.0000   1.0000   1.0000   1.0000   1.0000
     0.0000   0.0000   0.0000   0.0000   0.0000

          k = 0.8750-0.6250-0.6250     band energies (ev):

   -93.8292 -91.8383 -54.0806 -54.0666 -54.0596 -52.1375 -52.1303 -52.1298
    -1.8886  -1.5882   5.9032   6.0975   6.5670   6.8536   7.1959   9.7719
    10.7688  11.5841  12.3649  12.7508  12.9356  13.6724  14.5145  14.6450
    15.7404  17.1583  21.4990  22.4018  25.9873

     occupation numbers 
     1.0000   1.0000   1.0000   1.0000   1.0000   1.0000   1.0000   1.0000
     1.0000   1.0000   1.0000   1.0000   1.0000   1.0000   1.0000   1.0000
     1.0000   1.0000   1.0000   1.0000   1.0000   1.0000   1.0000   0.9998
     0.0174   0.0000   0.0000   0.0000   0.0000

          k = 0.7500-0.7500-0.2500     band energies (ev):

   -93.8284 -91.8374 -54.0794 -54.0724 -54.0655 -52.1441 -52.1363 -52.1290
    -1.2369  -1.0567   6.2135   6.2434   6.6262   6.7740   7.0148   9.4212
     9.8579  11.5838  11.8584  12.1677  13.1208  13.2941  14.0699  14.4891
    15.9102  16.1449  22.5210  22.9054  24.9844

     occupation numbers 
     1.0000   1.0000   1.0000   1.0000   1.0000   1.0000   1.0000   1.0000
     1.0000   1.0000   1.0000   1.0000   1.0000   1.0000   1.0000   1.0000
     1.0000   1.0000   1.0000   1.0000   1.0000   1.0000   1.0000   1.0000
     0.0014   0.0000   0.0000   0.0000   0.0000

          k =-0.2500-0.2500-0.2500     band energies (ev):

   -93.8299 -91.8392 -54.0817 -54.0571 -54.0571 -52.1317 -52.1270 -52.1270
    -2.3016  -2.2396   5.9572   5.9572   6.2969   7.1452   7.1453  10.1132
    11.4966  11.9915  11.9916  13.0541  13.0542  13.3064  15.6652  15.6652
    16.9045  16.9046  20.3406  20.3691  26.5944

     occupation numbers 
     1.0000   1.0000   1.0000   1.0000   1.0000   1.0000   1.0000   1.0000
     1.0000   1.0000   1.0000   1.0000   1.0000   1.0000   1.0000   1.0000
     1.0000   1.0000   1.0000   1.0000   1.0000   1.0000   0.0427   0.0427
     0.0000   0.0000   0.0000   0.0000   0.0000

     the Fermi energy is    15.3341 ev

!    total energy              =    -749.25925871 Ry
     Harris-Foulkes estimate   =    -750.18242568 Ry
     estimated scf accuracy    <       6.15122700 Ry
     smearing contrib. (-TS)   =      -0.00461675 Ry
     internal energy E=F+TS    =    -749.25464196 Ry

     The total energy is F=E-TS. E is the sum of the following terms:
     one-electron contribution =    -459.29162155 Ry
     hartree contribution      =     247.96712763 Ry
     xc contribution           =     -86.19955306 Ry
     ewald contribution        =    -478.65259034 Ry
     Hubbard energy            =       1.06022220 Ry
     scf correction            =      25.86177315 Ry
 
     Band energy sum           =     -53.38248771 Ry

     total magnetization       =    -0.11 Bohr mag/cell
     absolute magnetization    =     2.22 Bohr mag/cell

     iteration #  3     ecut=    64.00 Ry     beta= 0.25
     Davidson diagonalization with overlap

---- Real-time Memory Report at c_bands before calling an iterative solver
           996 MiB given to the printing process from OS
           907 MiB allocation reported by mallinfo(arena+hblkhd)
         59379 MiB available memory on the node where the printing process lives
------------------
     ethr =  1.00E-02,  avg # of iterations =  2.0

     =================== HUBBARD OCCUPATIONS ===================
     ------------------------ ATOM    1 ------------------------
     Tr[ns(  1)] (up, down, total) =   4.95564  3.17308  8.12872
     Atomic magnetic moment for atom   1 =   1.78256
     SPIN  1
     eigenvalues:
       0.990  0.990  0.992  0.992  0.992
     eigenvectors (columns):
      -0.163 -0.982 -0.085  0.038  0.000
      -0.059  0.048 -0.657 -0.479 -0.577
       0.071  0.027 -0.086  0.808 -0.577
       0.982 -0.163 -0.038 -0.085 -0.000
       0.012  0.075 -0.743  0.330  0.577
     occupation matrix ns (before diag.):
       0.990  0.000  0.000 -0.000  0.000
       0.000  0.992  0.000  0.000 -0.000
       0.000  0.000  0.992 -0.000 -0.000
      -0.000  0.000 -0.000  0.990 -0.000
       0.000 -0.000 -0.000 -0.000  0.992
     SPIN  2
     eigenvalues:
       0.128  0.128  0.971  0.971  0.974
     eigenvectors (columns):
       0.125  0.992  0.001  0.001  0.000
       0.001  0.000 -0.638  0.509 -0.577
      -0.001  0.001 -0.122 -0.807 -0.577
       0.992 -0.125  0.001 -0.001 -0.000
       0.000  0.001 -0.760 -0.298  0.577
     occupation matrix ns (before diag.):
       0.128 -0.001 -0.001 -0.000 -0.001
      -0.001  0.972  0.001 -0.001 -0.001
      -0.001  0.001  0.972  0.001 -0.001
      -0.000 -0.001  0.001  0.128 -0.000
      -0.001 -0.001 -0.001 -0.000  0.972
     ------------------------ ATOM    2 ------------------------
     Tr[ns(  2)] (up, down, total) =   3.20034  4.96240  8.16274
     Atomic magnetic moment for atom   2 =  -1.76207
     SPIN  1
     eigenvalues:
       0.132  0.132  0.978  0.978  0.979
     eigenvectors (columns):
       0.123 -0.992  0.010 -0.003 -0.000
      -0.008  0.003  0.606  0.547 -0.577
       0.007  0.005  0.171 -0.798 -0.577
       0.992  0.123  0.003  0.010 -0.000
      -0.001  0.009  0.777 -0.251  0.577
     occupation matrix ns (before diag.):
       0.132  0.004  0.004 -0.000  0.007
       0.004  0.979  0.000  0.006 -0.000
       0.004  0.000  0.979 -0.006 -0.000
      -0.000  0.006 -0.006  0.132 -0.000
       0.007 -0.000 -0.000 -0.000  0.979
     SPIN  2
     eigenvalues:
       0.992  0.992  0.992  0.993  0.993
     eigenvectors (columns):
       0.351  0.121  0.000 -0.426 -0.825
      -0.144 -0.745  0.577 -0.303 -0.014
      -0.573  0.497  0.577  0.164 -0.255
      -0.121  0.351 -0.000 -0.825  0.426
      -0.717 -0.248 -0.577 -0.139 -0.269
     occupation matrix ns (before diag.):
       0.993  0.000  0.000 -0.000  0.000
       0.000  0.992  0.000  0.000 -0.000
       0.000  0.000  0.992 -0.000 -0.000
      -0.000  0.000 -0.000  0.993 -0.000
       0.000 -0.000 -0.000 -0.000  0.992

     Number of occupied Hubbard levels =   16.2915

     HUBBARD ENERGY =    0.9777  (Ry)

     total cpu time spent up to now is       19.5 secs

 ------ SPIN UP ------------


          k = 0.0000 0.0000 0.0000     band energies (ev):

   -89.3358 -87.6069 -49.7606 -49.7493 -49.7493 -48.0878 -48.0608 -48.0608
    -5.3614  -3.8219   6.2826   8.3363   8.3363  10.3230  10.3230  10.5458
    12.2500  12.2500  12.2553  12.7554  12.7555  14.8016  14.8529  14.8529
    16.2224  17.9910  17.9910  19.9539  25.0720

     occupation numbers 
     1.0000   1.0000   1.0000   1.0000   1.0000   1.0000   1.0000   1.0000
     1.0000   1.0000   1.0000   1.0000   1.0000   1.0000   1.0000   1.0000
     1.0000   1.0000   1.0000   1.0000   1.0000   1.0000   1.0000   1.0000
     0.3787   0.0000   0.0000   0.0000   0.0000

          k =-0.1250-0.1250 0.3750     band energies (ev):

   -89.3349 -87.6058 -49.7617 -49.7588 -49.7525 -48.0861 -48.0741 -48.0641
    -4.7309  -3.7322   7.2021   8.2039   8.5284   8.7001  10.0646  10.3323
    10.4942  11.4228  11.7908  12.9739  13.0235  14.5550  15.1316  15.1478
    17.4161  17.8831  19.5163  22.8220  24.2693

     occupation numbers 
     1.0000   1.0000   1.0000   1.0000   1.0000   1.0000   1.0000   1.0000
     1.0000   1.0000   1.0000   1.0000   1.0000   1.0000   1.0000   1.0000
     1.0000   1.0000   1.0000   1.0000   1.0000   1.0000   1.0000   1.0000
     0.0000   0.0000   0.0000   0.0000   0.0000

          k = 0.2500 0.2500-0.7500     band energies (ev):

   -89.3339 -87.6047 -49.7741 -49.7570 -49.7557 -48.0874 -48.0843 -48.0675
    -3.8801  -3.7389   7.1692   7.8007   8.0410   8.5191   9.7010  10.1517
    10.6502  10.7450  11.4085  12.8662  13.3384  14.2923  15.3573  15.3853
    17.8190  17.8274  22.1574  22.4421  24.3773

     occupation numbers 
     1.0000   1.0000   1.0000   1.0000   1.0000   1.0000   1.0000   1.0000
     1.0000   1.0000   1.0000   1.0000   1.0000   1.0000   1.0000   1.0000
     1.0000   1.0000   1.0000   1.0000   1.0000   1.0000   1.0000   1.0000
     0.0000   0.0000   0.0000   0.0000   0.0000

          k =-0.2500 0.2500 0.2500     band energies (ev):

   -89.3349 -87.6058 -49.7617 -49.7588 -49.7525 -48.0861 -48.0741 -48.0641
    -4.6690  -3.8091   7.3863   8.1455   8.5274   8.5861  10.0096  10.3113
    10.5399  11.2550  11.5620  13.3186  13.3429  14.5261  15.0447  15.1760
    17.7738  17.7881  19.0921  22.2832  24.5094

     occupation numbers 
     1.0000   1.0000   1.0000   1.0000   1.0000   1.0000   1.0000   1.0000
     1.0000   1.0000   1.0000   1.0000   1.0000   1.0000   1.0000   1.0000
     1.0000   1.0000   1.0000   1.0000   1.0000   1.0000   1.0000   1.0000
     0.0000   0.0000   0.0000   0.0000   0.0000

          k = 0.1250 0.6250-0.8750     band energies (ev):

   -89.3339 -87.6048 -49.7695 -49.7602 -49.7570 -48.0843 -48.0824 -48.0724
    -3.9271  -3.6955   7.2750   7.8705   8.4089   8.6113   8.9934   9.7603
    10.8892  11.0188  11.4965  12.7177  12.9738  14.8492  15.0401  15.3714
    17.6524  18.0176  21.9995  23.0212  25.0412

     occupation numbers 
     1.0000   1.0000   1.0000   1.0000   1.0000   1.0000   1.0000   1.0000
     1.0000   1.0000   1.0000   1.0000   1.0000   1.0000   1.0000   1.0000
     1.0000   1.0000   1.0000   1.0000   1.0000   1.0000   1.0000   1.0000
     0.0000   0.0000   0.0000   0.0000   0.0000

          k = 0.0000 0.5000-0.5000     band energies (ev):

   -89.3339 -87.6048 -49.7695 -49.7602 -49.7570 -48.0843 -48.0824 -48.0725
    -3.9747  -3.6516   7.3023   8.2665   8.4253   8.7727   8.7969   9.2903
    10.7783  11.0511  11.7720  12.2264  13.1485  14.8225  15.1088  15.3619
    17.4980  18.2238  21.8581  23.4275  25.6508

     occupation numbers 
     1.0000   1.0000   1.0000   1.0000   1.0000   1.0000   1.0000   1.0000
     1.0000   1.0000   1.0000   1.0000   1.0000   1.0000   1.0000   1.0000
     1.0000   1.0000   1.0000   1.0000   1.0000   1.0000   1.0000   1.0000
     0.0000   0.0000   0.0000   0.0000   0.0000

          k = 0.5000-0.5000-0.5000     band energies (ev):

   -89.3339 -87.6048 -49.7741 -49.7571 -49.7556 -48.0874 -48.0842 -48.0675
    -3.8226  -3.7819   6.3291   7.8826   8.4970   8.5674   9.7934  10.7361
    10.7990  10.8050  11.0704  13.0537  13.1238  14.4751  15.3599  15.3785
    18.1381  18.2705  19.9570  20.8164  26.0331

     occupation numbers 
     1.0000   1.0000   1.0000   1.0000   1.0000   1.0000   1.0000   1.0000
     1.0000   1.0000   1.0000   1.0000   1.0000   1.0000   1.0000   1.0000
     1.0000   1.0000   1.0000   1.0000   1.0000   1.0000   1.0000   1.0000
     0.0000   0.0000   0.0000   0.0000   0.0000

          k = 0.1250 0.1250 0.1250     band energies (ev):

   -89.3359 -87.6069 -49.7605 -49.7493 -49.7493 -48.0879 -48.0608 -48.0608
    -5.1710  -4.0903   6.8633   8.4031   8.4031  10.1144  10.3361  10.3361
    11.5188  11.6326  11.6326  13.3972  13.3972  14.7120  14.8202  14.8202
    17.3413  17.8596  17.8596  19.9484  25.2685

     occupation numbers 
     1.0000   1.0000   1.0000   1.0000   1.0000   1.0000   1.0000   1.0000
     1.0000   1.0000   1.0000   1.0000   1.0000   1.0000   1.0000   1.0000
     1.0000   1.0000   1.0000   1.0000   1.0000   1.0000   1.0000   1.0000
     0.0000   0.0000   0.0000   0.0000   0.0000

          k = 0.5000 0.5000-1.0000     band energies (ev):

   -89.3349 -87.6058 -49.7618 -49.7587 -49.7525 -48.0861 -48.0741 -48.0641
    -4.5237  -3.9743   7.1684   8.2757   8.5499   8.7469  10.0725  10.2254
    10.7433  11.8330  11.8381  12.1821  12.8733  14.5870  15.1206  15.2083
    17.1276  18.0444  20.5560  21.8725  25.6317

     occupation numbers 
     1.0000   1.0000   1.0000   1.0000   1.0000   1.0000   1.0000   1.0000
     1.0000   1.0000   1.0000   1.0000   1.0000   1.0000   1.0000   1.0000
     1.0000   1.0000   1.0000   1.0000   1.0000   1.0000   1.0000   1.0000
     0.0000   0.0000   0.0000   0.0000   0.0000

          k = 0.3750 0.3750-0.6250     band energies (ev):

   -89.3339 -87.6048 -49.7741 -49.7570 -49.7556 -48.0874 -48.0843 -48.0675
    -3.8583  -3.7536   6.6510   7.7801   8.5083   8.5372   9.7214  10.3291
    10.7137  10.7507  11.3466  12.9714  13.1936  14.3927  15.3684  15.3736
    17.9785  17.9834  21.0094  21.4469  24.9126

     occupation numbers 
     1.0000   1.0000   1.0000   1.0000   1.0000   1.0000   1.0000   1.0000
     1.0000   1.0000   1.0000   1.0000   1.0000   1.0000   1.0000   1.0000
     1.0000   1.0000   1.0000   1.0000   1.0000   1.0000   1.0000   1.0000
     0.0000   0.0000   0.0000   0.0000   0.0000

          k = 0.8750-0.6250-0.6250     band energies (ev):

   -89.3349 -87.6058 -49.7618 -49.7587 -49.7525 -48.0861 -48.0741 -48.0641
    -4.3657  -4.1472   7.3696   8.0246   8.6092   8.8350  10.0154  10.1902
    10.6998  11.4002  11.5766  12.8327  13.1865  14.5667  15.1244  15.1440
    17.4178  17.9379  20.2410  21.4782  25.7956

     occupation numbers 
     1.0000   1.0000   1.0000   1.0000   1.0000   1.0000   1.0000   1.0000
     1.0000   1.0000   1.0000   1.0000   1.0000   1.0000   1.0000   1.0000
     1.0000   1.0000   1.0000   1.0000   1.0000   1.0000   1.0000   1.0000
     0.0000   0.0000   0.0000   0.0000   0.0000

          k = 0.7500-0.7500-0.2500     band energies (ev):

   -89.3339 -87.6048 -49.7695 -49.7602 -49.7570 -48.0843 -48.0824 -48.0724
    -3.8352  -3.7840   7.3348   7.4886   8.3923   8.5320   9.1816  10.0715
    10.9362  11.0266  11.3996  12.7180  13.1144  14.8739  14.9854  15.3731
    17.8144  17.8320  22.2520  22.3639  24.4515

     occupation numbers 
     1.0000   1.0000   1.0000   1.0000   1.0000   1.0000   1.0000   1.0000
     1.0000   1.0000   1.0000   1.0000   1.0000   1.0000   1.0000   1.0000
     1.0000   1.0000   1.0000   1.0000   1.0000   1.0000   1.0000   1.0000
     0.0000   0.0000   0.0000   0.0000   0.0000

          k =-0.2500-0.2500-0.2500     band energies (ev):

   -89.3359 -87.6069 -49.7604 -49.7493 -49.7493 -48.0880 -48.0608 -48.0608
    -4.7151  -4.6212   7.9494   8.4775   8.4775   8.9519  10.3515  10.3515
    11.1883  11.2818  11.2818  13.7829  13.7829  14.6110  14.7835  14.7836
    17.7328  17.7328  19.0512  19.1069  26.7441

     occupation numbers 
     1.0000   1.0000   1.0000   1.0000   1.0000   1.0000   1.0000   1.0000
     1.0000   1.0000   1.0000   1.0000   1.0000   1.0000   1.0000   1.0000
     1.0000   1.0000   1.0000   1.0000   1.0000   1.0000   1.0000   1.0000
     0.0000   0.0000   0.0000   0.0000   0.0000

 ------ SPIN DOWN ----------


          k = 0.0000 0.0000 0.0000     band energies (ev):

   -89.8120 -87.1745 -50.2281 -50.2020 -50.2020 -47.6651 -47.6505 -47.6505
    -5.3558  -3.8179   6.2741   8.0239   8.0239   9.9222   9.9223  10.2396
    12.2527  12.2527  12.2619  12.4698  12.4698  15.1410  15.2112  15.2112
    16.2110  18.2671  18.2671  19.9533  25.0811

     occupation numbers 
     1.0000   1.0000   1.0000   1.0000   1.0000   1.0000   1.0000   1.0000
     1.0000   1.0000   1.0000   1.0000   1.0000   1.0000   1.0000   1.0000
     1.0000   1.0000   1.0000   1.0000   1.0000   1.0000   1.0000   1.0000
     0.4016   0.0000   0.0000   0.0000   0.0000

          k =-0.1250-0.1250 0.3750     band energies (ev):

   -89.8111 -87.1735 -50.2264 -50.2139 -50.2049 -47.6643 -47.6632 -47.6539
    -4.7261  -3.7288   7.1311   8.0437   8.2016   8.5751   9.7760  10.0705
    10.2544  11.1568  11.6626  12.7513  12.7920  14.9029  15.4698  15.5296
    17.6109  18.1736  19.5656  22.8274  24.2690

     occupation numbers 
     1.0000   1.0000   1.0000   1.0000   1.0000   1.0000   1.0000   1.0000
     1.0000   1.0000   1.0000   1.0000   1.0000   1.0000   1.0000   1.0000
     1.0000   1.0000   1.0000   1.0000   1.0000   1.0000   0.9998   0.9995
     0.0000   0.0000   0.0000   0.0000   0.0000

          k = 0.2500 0.2500-0.7500     band energies (ev):

   -89.8101 -87.1723 -50.2258 -50.2247 -50.2080 -47.6780 -47.6614 -47.6574
    -3.8882  -3.7232   7.1120   7.7808   7.7852   8.2025   9.7217   9.7835
    10.3058  10.6814  11.1132  12.5292  13.0043  14.6318  15.7311  15.7616
    18.1018  18.1400  22.0725  22.5037  24.3740

     occupation numbers 
     1.0000   1.0000   1.0000   1.0000   1.0000   1.0000   1.0000   1.0000
     1.0000   1.0000   1.0000   1.0000   1.0000   1.0000   1.0000   1.0000
     1.0000   1.0000   1.0000   1.0000   1.0000   1.0000   0.9876   0.9815
     0.0000   0.0000   0.0000   0.0000   0.0000

          k =-0.2500 0.2500 0.2500     band energies (ev):

   -89.8111 -87.1735 -50.2264 -50.2139 -50.2050 -47.6643 -47.6632 -47.6539
    -4.6633  -3.8070   7.3579   7.9400   8.2517   8.4086   9.7372  10.0166
    10.3300  11.0066  11.4030  13.0618  13.1540  14.8760  15.3937  15.5440
    18.0504  18.0767  19.0877  22.3248  24.4812

     occupation numbers 
     1.0000   1.0000   1.0000   1.0000   1.0000   1.0000   1.0000   1.0000
     1.0000   1.0000   1.0000   1.0000   1.0000   1.0000   1.0000   1.0000
     1.0000   1.0000   1.0000   1.0000   1.0000   1.0000   1.0000   0.9994
     0.0000   0.0000   0.0000   0.0000   0.0000

          k = 0.1250 0.6250-0.8750     band energies (ev):

   -89.8101 -87.1724 -50.2248 -50.2214 -50.2125 -47.6728 -47.6626 -47.6614
    -3.9257  -3.6903   7.1824   7.8162   8.1720   8.3818   8.8130   9.6193
    10.6397  10.7228  11.2274  12.4149  12.7061  15.1470  15.4221  15.7515
    17.9105  18.2979  21.9599  23.0319  24.7606

     occupation numbers 
     1.0000   1.0000   1.0000   1.0000   1.0000   1.0000   1.0000   1.0000
     1.0000   1.0000   1.0000   1.0000   1.0000   1.0000   1.0000   1.0000
     1.0000   1.0000   1.0000   1.0000   1.0000   1.0000   0.9999   0.9838
     0.0000   0.0000   0.0000   0.0000   0.0000

          k = 0.0000 0.5000-0.5000     band energies (ev):

   -89.8101 -87.1724 -50.2248 -50.2214 -50.2125 -47.6729 -47.6626 -47.6613
    -3.9700  -3.6495   7.1813   8.1819   8.3630   8.4190   8.6184   9.2141
    10.5408  10.7023  11.5410  11.8524  12.8971  15.1398  15.4912  15.7443
    17.7423  18.5011  21.8534  23.4114  25.6178

     occupation numbers 
     1.0000   1.0000   1.0000   1.0000   1.0000   1.0000   1.0000   1.0000
     1.0000   1.0000   1.0000   1.0000   1.0000   1.0000   1.0000   1.0000
     1.0000   1.0000   1.0000   1.0000   1.0000   1.0000   0.9998   0.9852
     0.0000   0.0000   0.0000   0.0000   0.0000

          k = 0.5000-0.5000-0.5000     band energies (ev):

   -89.8101 -87.1724 -50.2259 -50.2247 -50.2080 -47.6780 -47.6613 -47.6574
    -3.8173  -3.7816   6.3001   7.8867   8.1910   8.2476   9.4591  10.2967
    10.7348  10.8030  10.8096  12.7666  12.9065  14.7500  15.7105  15.7749
    18.4136  18.5377  19.9504  20.7712  25.0999

     occupation numbers 
     1.0000   1.0000   1.0000   1.0000   1.0000   1.0000   1.0000   1.0000
     1.0000   1.0000   1.0000   1.0000   1.0000   1.0000   1.0000   1.0000
     1.0000   1.0000   1.0000   1.0000   1.0000   1.0000   0.9907   0.9782
     0.0000   0.0000   0.0000   0.0000   0.0000

          k = 0.1250 0.1250 0.1250     band energies (ev):

   -89.8120 -87.1745 -50.2280 -50.2019 -50.2019 -47.6652 -47.6505 -47.6505
    -5.1649  -4.0868   6.8454   8.0813   8.0813   9.9330   9.9330   9.9333
    11.3999  11.5707  11.5707  13.1718  13.1718  15.0473  15.1863  15.1863
    17.3368  18.1563  18.1563  19.9566  25.2670

     occupation numbers 
     1.0000   1.0000   1.0000   1.0000   1.0000   1.0000   1.0000   1.0000
     1.0000   1.0000   1.0000   1.0000   1.0000   1.0000   1.0000   1.0000
     1.0000   1.0000   1.0000   1.0000   1.0000   1.0000   1.0000   1.0000
     0.0000   0.0000   0.0000   0.0000   0.0000

          k = 0.5000 0.5000-1.0000     band energies (ev):

   -89.8111 -87.1735 -50.2264 -50.2139 -50.2050 -47.6643 -47.6633 -47.6540
    -4.5226  -3.9663   7.0386   8.1685   8.2208   8.6266   9.7799   9.9030
    10.6417  11.4546  11.7287  12.0689  12.5748  14.9118  15.5120  15.5541
    17.3094  18.3201  20.6314  21.8670  25.6418

     occupation numbers 
     1.0000   1.0000   1.0000   1.0000   1.0000   1.0000   1.0000   1.0000
     1.0000   1.0000   1.0000   1.0000   1.0000   1.0000   1.0000   1.0000
     1.0000   1.0000   1.0000   1.0000   1.0000   1.0000   0.9996   0.9992
     0.0000   0.0000   0.0000   0.0000   0.0000

          k = 0.3750 0.3750-0.6250     band energies (ev):

   -89.8101 -87.1724 -50.2258 -50.2247 -50.2081 -47.6780 -47.6614 -47.6574
    -3.8626  -3.7424   6.6209   7.6590   8.1971   8.3696   9.4747  10.1647
    10.3007  10.7369  11.0941  12.7028  12.8849  14.6945  15.7234  15.7683
    18.2497  18.2731  21.0096  21.4135  24.9562

     occupation numbers 
     1.0000   1.0000   1.0000   1.0000   1.0000   1.0000   1.0000   1.0000
     1.0000   1.0000   1.0000   1.0000   1.0000   1.0000   1.0000   1.0000
     1.0000   1.0000   1.0000   1.0000   1.0000   1.0000   0.9888   0.9799
     0.0000   0.0000   0.0000   0.0000   0.0000

          k = 0.8750-0.6250-0.6250     band energies (ev):

   -89.8111 -87.1735 -50.2264 -50.2139 -50.2050 -47.6643 -47.6633 -47.6539
    -4.3663  -4.1378   7.2328   7.9530   8.2718   8.6668   9.7399   9.8951
    10.5657  11.1203  11.4264  12.6242  12.9250  14.8920  15.4578  15.5258
    17.6246  18.2280  20.2606  21.4924  25.7300

     occupation numbers 
     1.0000   1.0000   1.0000   1.0000   1.0000   1.0000   1.0000   1.0000
     1.0000   1.0000   1.0000   1.0000   1.0000   1.0000   1.0000   1.0000
     1.0000   1.0000   1.0000   1.0000   1.0000   1.0000   0.9999   0.9995
     0.0000   0.0000   0.0000   0.0000   0.0000

          k = 0.7500-0.7500-0.2500     band energies (ev):

   -89.8101 -87.1724 -50.2248 -50.2214 -50.2125 -47.6728 -47.6626 -47.6614
    -3.8512  -3.7610   7.2713   7.4358   8.1239   8.2672   9.0236   9.8936
    10.5614  10.8882  11.1676  12.4062  12.8438  15.1539  15.3620  15.7546
    18.0909  18.1160  21.9993  22.6010  24.2376

     occupation numbers 
     1.0000   1.0000   1.0000   1.0000   1.0000   1.0000   1.0000   1.0000
     1.0000   1.0000   1.0000   1.0000   1.0000   1.0000   1.0000   1.0000
     1.0000   1.0000   1.0000   1.0000   1.0000   1.0000   1.0000   0.9831
     0.0000   0.0000   0.0000   0.0000   0.0000

          k =-0.2500-0.2500-0.2500     band energies (ev):

   -89.8121 -87.1745 -50.2280 -50.2019 -50.2019 -47.6653 -47.6505 -47.6505
    -4.6819  -4.6448   7.8759   8.1433   8.1433   8.9688   9.9440   9.9440
    10.9265  11.2363  11.2363  13.5213  13.5213  14.9359  15.1607  15.1607
    18.0420  18.0420  18.9385  19.2347  26.3993

     occupation numbers 
[...]
     sum_band:weights               27       4.31 ms       0.00     100.00     111.33 us     100.44 us     584.25 us
     new_ns                         27     187.03 ms       0.14      75.62       6.87 ms       6.22 ms       7.69 ms
      calbec                      702      45.60 ms       0.03     100.00      70.10 us      43.08 us     219.03 us
     sum_band:loop                  27      11.34 s        8.61      47.65     427.19 ms     371.60 ms     515.38 ms
      sum_band:buffer             702     106.86 ms       0.08     100.00     152.84 us     125.83 us     169.33 us
      sum_band:init_us_2          702     878.01 ms       0.67       0.32       1.25 ms     981.95 us       1.37 ms
       init_us_2                 702     875.18 ms       0.66       0.47       1.25 ms     979.24 us       1.37 ms
         init_us_2:cpu           702     871.04 ms       0.66     100.00       1.24 ms     975.17 us       1.36 ms
      fftw                      20358       4.55 s        3.46     100.00     236.82 us     176.94 us       5.04 ms
      sum_band:calbec             702     189.80 ms       0.14       2.68     297.15 us     200.43 us     376.29 us
       calbec                    702     184.70 ms       0.14     100.00     290.02 us     193.47 us     369.28 us
      sum_band:becsum             702     208.48 ms       0.16     100.00     243.66 us     224.96 us      15.70 ms
     ffts                           54      10.95 ms       0.01     100.00     191.24 us     152.73 us     256.34 us
     addusdens                      27      11.78 s        8.94       9.82     430.36 ms     424.33 ms     496.66 ms
      addusd:skk                   81      49.16 ms       0.04     100.00     138.31 us      91.55 us       3.61 ms
      addusd:dgemm                162       1.56 s        1.19     100.00       6.47 ms       3.07 ms      25.47 ms
      addusd:qvan2                162       9.01 s        6.84     100.00      65.70 ms      32.39 ms     113.08 ms
     sum_band:sym_rho               27     172.27 ms       0.13      80.63       6.32 ms       6.13 ms       6.93 ms
       fft                          54      33.38 ms       0.03     100.00     617.24 us     510.84 us     897.15 us
    diagh                           108       2.43 ms       0.00     100.00      16.09 us       6.94 us      61.48 us
    mix_rho                          27     353.03 ms       0.27      82.75      14.42 ms     293.31 us      15.97 ms
     fft                           104      60.91 ms       0.05     100.00     523.70 us     492.87 us     864.63 us
    v_of_rho                         27      13.11 s        9.96       0.01     483.13 ms     478.73 ms     530.86 ms
     v_xc                           27      12.95 s        9.83      98.22     477.00 ms     474.20 ms     522.54 ms
      fft                         378     229.97 ms       0.17     100.00     562.57 us     440.37 us     967.43 us
     v_h                            27     161.44 ms       0.12      76.72       5.98 ms       3.34 ms       9.59 ms
       fft                          27      37.58 ms       0.03     100.00       1.29 ms     544.42 us       4.89 ms
    interpolate                      54     116.05 ms       0.09      53.33       2.05 ms       1.58 ms       2.47 ms
     fft                            54      41.72 ms       0.03     100.00     784.92 us     453.47 us       1.26 ms
     ffts                           54      12.45 ms       0.01     100.00     238.28 us     162.07 us     255.76 us
    newd                             27       8.17 s        6.21      99.30     300.26 ms     294.07 ms     340.96 ms
      fft                            54      57.33 ms       0.04     100.00     776.30 us     482.04 us       6.42 ms
   ions                                1      14.45 s       10.97       0.00      14.45 s       14.45 s       14.45 s 
     forces                            1       2.09 s        1.59       0.39       2.09 s        2.09 s        2.09 s 
      frc_us                          1     433.75 ms       0.33      84.93     433.75 ms     433.75 ms     433.75 ms
       init_us_2                    26      32.37 ms       0.02       0.43       1.25 ms       1.02 ms       1.29 ms
        init_us_2:cpu              26      32.23 ms       0.02     100.00       1.24 ms       1.02 ms       1.29 ms
       calbec                      104      31.43 ms       0.02     100.00     297.20 us     287.10 us     401.20 us
       fft                           2       1.56 ms       0.00     100.00     779.44 us     773.33 us     785.56 us
      frc_lc                          1       8.04 ms       0.01      89.69       8.04 ms       8.04 ms       8.04 ms
       fft                           1     829.45 us       0.00     100.00     829.45 us     829.45 us     829.45 us
      frc_cc                          1     492.98 ms       0.37       3.00     492.98 ms     492.98 ms     492.98 ms
       v_xc                          1     477.37 ms       0.36      97.64     477.37 ms     477.37 ms     477.37 ms
        fft                        14      11.28 ms       0.01     100.00     814.50 us     718.75 us     927.97 us
       fft                           1     842.50 us       0.00     100.00     842.50 us     842.50 us     842.50 us
      force_hub                       1       1.14 s        0.86       5.62       1.14 s        1.14 s        1.14 s 
       init_us_2                    26      25.18 ms       0.02       0.50     953.57 us     928.80 us       1.30 ms
        init_us_2:cpu              26      25.05 ms       0.02     100.00     948.40 us     924.32 us       1.29 ms
       calbec                       78      11.93 ms       0.01     100.00     122.68 us     111.09 us     364.67 us
       s_psi_bgrp                   52      20.92 ms       0.02      61.44     385.71 us     375.70 us       1.08 ms
        s_psi                      52       8.07 ms       0.01     100.00     151.19 us     146.62 us     212.61 us
       atomic_wfc                   26      21.35 ms       0.02     100.00     820.10 us     800.44 us     845.68 us
       diagh                        26       5.02 ms       0.00     100.00     186.53 us     166.90 us     261.66 us
       dndtau                      312     988.50 ms       0.75       5.99       3.25 ms       2.04 ms       4.63 ms
         calbec                   1248      61.56 ms       0.05     100.00      51.68 us      32.58 us     196.28 us
         calc_doverlap_inv         312     675.56 ms       0.51      88.40       2.19 ms       1.25 ms       3.27 ms
          calbec                 1248      78.39 ms       0.06     100.00      53.67 us      35.23 us     146.43 us
         dprojdtau                 624     192.13 ms       0.15     100.00     314.03 us     226.83 us     736.72 us
      frc_scc                         1      13.16 ms       0.01      96.07      13.16 ms      13.16 ms      13.16 ms
        fft                           1     516.76 us       0.00     100.00     516.76 us     516.76 us     516.76 us
     stress                            1      12.35 s        9.38      46.40      12.35 s       12.35 s       12.35 s 
       fft                            11       5.86 ms       0.00     100.00     518.04 us     483.61 us     677.66 us
       v_xc                            1     480.84 ms       0.37      98.45     480.84 ms     480.84 ms     480.84 ms
        fft                          14       7.43 ms       0.01     100.00     542.84 us     442.51 us     646.07 us
       init_us_2                      26      26.35 ms       0.02       0.78       1.01 ms     980.21 us       1.18 ms
        init_us_2:cpu                26      26.14 ms       0.02     100.00     997.93 us     971.22 us       1.18 ms
       calbec                         26      12.94 ms       0.01     100.00     488.77 us     305.47 us     614.99 us
       stres_us31                     26     348.54 us       0.00     100.00      13.07 us      11.85 us      15.52 us
       stres_us32                     26       8.06 ms       0.01     100.00     309.29 us     300.01 us     317.99 us
       stres_us33                     26      13.02 ms       0.01     100.00     499.63 us     494.69 us     517.87 us
       stres_us34                     26       7.92 ms       0.01     100.00     301.20 us     289.28 us     337.54 us
       stres_hub                       1       6.07 s        4.61       9.91       6.07 s        6.07 s        6.07 s 
         init_us_2                    26      25.06 ms       0.02       0.50     965.38 us     932.77 us     986.00 us
          init_us_2:cpu              26      24.94 ms       0.02     100.00     960.80 us     927.64 us     981.21 us
         calbec                       78      15.89 ms       0.01     100.00     187.03 us     114.81 us     413.04 us
         s_psi_bgrp                   52      28.66 ms       0.02      52.22     549.64 us     463.01 us     656.25 us
          s_psi                      52      13.69 ms       0.01     100.00     261.54 us     213.48 us     330.65 us
         atomic_wfc                   26      21.68 ms       0.02     100.00     836.34 us     816.70 us     857.91 us
         diagh                        26       5.59 ms       0.00     100.00     210.83 us     189.09 us     263.69 us
         stres_us31                   26     341.21 us       0.00     100.00      12.65 us      11.42 us      17.50 us
         stres_us32                   26       7.97 ms       0.01     100.00     306.50 us     295.46 us     313.83 us
         stres_us33                   26      13.01 ms       0.01     100.00     499.12 us     494.37 us     513.29 us
         stres_us34                   26       7.25 ms       0.01     100.00     278.94 us     263.25 us     306.81 us
         dprojdepsilon               234       5.34 s        4.06      89.70      19.77 ms      18.59 ms      30.86 ms
           calbec                   7722     550.17 ms       0.42     100.00      57.34 us      30.76 us     326.01 us
  qe2                                   1       1.94 s        1.47     100.00       1.94 s        1.94 s        1.94 s 
  davcio                               26     178.46 ms       0.14     100.00       1.35 ms     845.40 us      39.53 ms
 sirius::finalize                        1     133.36 ms       0.10     100.00     133.36 ms     133.36 ms     133.36 ms

=========================================================================================================================
===========================================================================================================
                            #         Total          %     Self %        Median           Min           Max
-----------------------------------------------------------------------------------------------------------
sirius                      1     131.66 s      100.00       0.00     131.66 s      131.66 s      131.66 s 
 PWSCF                     1     127.40 s       96.77     100.00     127.40 s      127.40 s      127.40 s 
 qe1                       1     119.39 s       90.69     100.00     119.39 s      119.39 s      119.39 s 
 electrons                 1     104.95 s       79.71     100.00     104.95 s      104.95 s      104.95 s 
 c_bands                  27      59.22 s       44.98     100.00       2.12 s        1.57 s        3.43 s 
 cegterg                 702      56.79 s       43.13     100.00      77.18 ms      53.46 ms     339.70 ms
 h_psi_bgrp             2647      49.75 s       37.79     100.00      24.89 ms     976.89 us     193.79 ms
 h_psi                  2647      49.74 s       37.78     100.00      24.88 ms     972.45 us     193.78 ms
 h_psi:pot              2647      48.06 s       36.51     100.00      24.75 ms     913.19 us     193.61 ms
 vloc_psi               2647      47.27 s       35.90     100.00      24.40 ms     832.73 us     191.30 ms
 fftw                   115k      26.00 s       19.75     100.00     223.86 us     176.61 us      19.01 ms
 sum_band                 27      23.56 s       17.90     100.00     875.79 ms     811.50 ms     978.57 ms
 ions                      1      14.45 s       10.97     100.00      14.45 s       14.45 s       14.45 s 
 v_xc                     30      14.40 s       10.94     100.00     477.22 ms     474.20 ms     522.54 ms
 v_of_rho                 28      13.61 s       10.34     100.00     483.20 ms     478.73 ms     530.86 ms
 stress                    1      12.35 s        9.38     100.00      12.35 s       12.35 s       12.35 s 
 addusdens                27      11.78 s        8.94     100.00     430.36 ms     424.33 ms     496.66 ms
 sum_band:loop            27      11.34 s        8.61     100.00     427.19 ms     371.60 ms     515.38 ms
 addusd:qvan2            162       9.01 s        6.84     100.00      65.70 ms      32.39 ms     113.08 ms
 newd                     28       8.48 s        6.44     100.00     300.49 ms     294.07 ms     340.96 ms
 stres_hub                 1       6.07 s        4.61     100.00       6.07 s        6.07 s        6.07 s 
 dprojdepsilon           234       5.34 s        4.06     100.00      19.77 ms      18.59 ms      30.86 ms
 sirius::initialize        1       4.13 s        3.13     100.00       4.13 s        4.13 s        4.13 s 
 init_run                  1       3.78 s        2.87     100.00       3.78 s        3.78 s        3.78 s 
 cdiaghg                2621       2.25 s        1.71     100.00     862.20 us     199.96 us       1.73 ms
 cegterg:diag           2595       2.24 s        1.70     100.00     872.00 us     203.95 us       1.74 ms
 forces                    1       2.09 s        1.59     100.00       2.09 s        2.09 s        2.09 s 
 qe2                       1       1.94 s        1.47     100.00       1.94 s        1.94 s        1.94 s 
 init_us_2              1560       1.78 s        1.35     100.00       1.21 ms     859.15 us       1.73 ms
 init_us_2:cpu          1560       1.77 s        1.34     100.00       1.20 ms     855.70 us       1.72 ms
 calbec                17228       1.61 s        1.22     100.00      58.51 us      13.11 us       2.09 ms
 addusd:dgemm            162       1.56 s        1.19     100.00       6.47 ms       3.07 ms      25.47 ms
 wfcinit                   1       1.48 s        1.12     100.00       1.48 s        1.48 s        1.48 s 
 hinit0                    1       1.38 s        1.05     100.00       1.38 s        1.38 s        1.38 s 
 wfcinit:wfcrot           26       1.16 s        0.88     100.00      44.07 ms      38.55 ms      54.92 ms
 wfcrot                   26       1.16 s        0.88     100.00      44.07 ms      38.54 ms      54.91 ms
 rotwfck                  26       1.16 s        0.88     100.00      44.06 ms      38.54 ms      54.90 ms
 force_hub                 1       1.14 s        0.86     100.00       1.14 s        1.14 s        1.14 s 
 rotwfck:hpsi             26       1.11 s        0.84     100.00      42.27 ms      36.74 ms      53.21 ms
 init_us_1                 1       1.06 s        0.80     100.00       1.06 s        1.06 s        1.06 s 
 s_psi_bgrp             2777       1.02 s        0.78     100.00     381.70 us     242.09 us       5.58 ms
 dndtau                  312     988.50 ms       0.75     100.00       3.25 ms       2.04 ms       4.63 ms
 sum_band:init_us_2      702     878.01 ms       0.67     100.00       1.25 ms     981.95 us       1.37 ms
 cegterg:last           1258     685.16 ms       0.52     100.00     137.00 us      55.81 us      14.70 ms
 calc_doverlap_inv       312     675.56 ms       0.51     100.00       2.19 ms       1.25 ms       3.27 ms
 cegterg:update         1919     662.81 ms       0.50     100.00     318.30 us     244.22 us       7.44 ms
 potinit                   1     580.81 ms       0.44     100.00     580.81 ms     580.81 ms     580.81 ms
 fft                     738     549.72 ms       0.42     100.00     589.63 us     440.37 us      41.42 ms
 h_psi:calbec           2647     502.06 ms       0.38     100.00     219.45 us      36.81 us       2.10 ms
 g_psi                  1919     499.66 ms       0.38     100.00     237.75 us     208.80 us       3.72 ms
 frc_cc                    1     492.98 ms       0.37     100.00     492.98 ms     492.98 ms     492.98 ms
 frc_us                    1     433.75 ms       0.33     100.00     433.75 ms     433.75 ms     433.75 ms
 cegterg:overlap        1919     361.21 ms       0.27     100.00     130.49 us      54.27 us     511.50 us
 mix_rho                  27     353.03 ms       0.27     100.00      14.42 ms     293.31 us      15.97 ms
 s_psi                  2777     339.53 ms       0.26     100.00     135.38 us      33.76 us       2.01 ms
 add_vuspsi             2647     269.69 ms       0.20     100.00     109.56 us      23.50 us     792.13 us
 vhpsi                  2647     242.85 ms       0.18     100.00      91.95 us      36.91 us     258.99 us
 cegterg:init            702     233.32 ms       0.18     100.00     387.59 us     231.43 us     608.41 us
 sum_band:becsum         702     208.48 ms       0.16     100.00     243.66 us     224.96 us      15.70 ms
 dprojdtau               624     192.13 ms       0.15     100.00     314.03 us     226.83 us     736.72 us
 sum_band:calbec         702     189.80 ms       0.14     100.00     297.15 us     200.43 us     376.29 us
 new_ns                   27     187.03 ms       0.14     100.00       6.87 ms       6.22 ms       7.69 ms
 davcio                   26     178.46 ms       0.14     100.00       1.35 ms     845.40 us      39.53 ms
 sum_band:sym_rho         27     172.27 ms       0.13     100.00       6.32 ms       6.13 ms       6.93 ms
 v_h                      28     167.58 ms       0.13     100.00       6.06 ms       3.34 ms       9.59 ms
 sirius::finalize          1     133.36 ms       0.10     100.00     133.36 ms     133.36 ms     133.36 ms
 interpolate              56     120.56 ms       0.09     100.00       2.05 ms       1.58 ms       2.61 ms
 diagh                   190     112.59 ms       0.09     100.00      47.07 us       2.87 us      59.86 ms
 sum_band:buffer         702     106.86 ms       0.08     100.00     152.84 us     125.83 us     169.33 us
 atomic_wfc              104      84.98 ms       0.06     100.00     822.66 us     730.98 us     899.69 us
 addusd:skk               81      49.16 ms       0.04     100.00     138.31 us      91.55 us       3.61 ms
 stres_us33               52      26.03 ms       0.02     100.00     499.34 us     494.37 us     517.87 us
 init_vloc                 1      24.85 ms       0.02     100.00      24.85 ms      24.85 ms      24.85 ms
 ffts                    110      23.94 ms       0.02     100.00     232.69 us     152.73 us     308.66 us
 wfcinit:atomic           26      22.07 ms       0.02     100.00     843.10 us     805.06 us     904.45 us
 rotwfck:diag             26      20.87 ms       0.02     100.00     799.82 us     719.98 us     997.56 us
 rotwfck:hc               26      17.27 ms       0.01     100.00     665.13 us     646.80 us     677.42 us
 stres_us32               52      16.04 ms       0.01     100.00     308.24 us     295.46 us     317.99 us
 stres_us34               52      15.17 ms       0.01     100.00     292.25 us     263.25 us     337.54 us
 frc_scc                   1      13.16 ms       0.01     100.00      13.16 ms      13.16 ms      13.16 ms
 frc_lc                    1       8.04 ms       0.01     100.00       8.04 ms       8.04 ms       8.04 ms
 rotwfck:evc              26       7.53 ms       0.01     100.00     288.00 us     266.58 us     368.25 us
 sum_band:weights         27       4.31 ms       0.00     100.00     111.33 us     100.44 us     584.25 us
 stres_us31               52     689.76 us       0.00     100.00      12.88 us      11.42 us      17.50 us

===========================================================================================================
