
     Program PWSCF v.7.0 starts on 31May2022 at 13:13:11 
        Git branch: develop
        Last git commit: 855c068f57a7bf264a98e23fae2c102c47574996
        Last git commit date: Fri May 27 21:05:14 2022 +0000
        Last git commit subject: Merge branch 'smallthings' into 'develop'

     This program is part of the open-source Quantum ESPRESSO suite
     for quantum simulation of materials; please cite
         "P. Giannozzi et al., J. Phys.:Condens. Matter 21 395502 (2009);
         "P. Giannozzi et al., J. Phys.:Condens. Matter 29 465901 (2017);
         "P. Giannozzi et al., J. Chem. Phys. 152 154105 (2020);
          URL http://www.quantum-espresso.org", 
     in publications or presentations arising from this work. More details at
     http://www.quantum-espresso.org/quote

     Parallel version (MPI & OpenMP), running on      16 processor cores
     Number of MPI processes:                 1
     Threads/MPI process:                    16

     MPI processes distributed on     1 nodes
     48621 MiB available memory on the printing compute node when the environment starts

     Reading input from pw.in

     Current dimensions of program PWSCF are:
     Max number of different atomic species (ntypx) = 10
     Max number of k-points (npk) =  40000
     Max angular momentum in pseudopotentials (lmaxx) =  4

     IMPORTANT: XC functional enforced from input :
     Exchange-correlation= XC-000I-000I-101L-130L-000I-000I
                           (   0   0 101 130   0   0   0)
     Any further DFT definition will be discarded
     Please, verify this is what you really want

     Message from routine setup:
     using ibrav=0 with symmetry is DISCOURAGED, use correct ibrav instead
     First shells distances (in Bohr):
     shell:   1    0.000000
     shell:   2    3.940000
     shell:   3    4.020345
     shell:   4    5.572001
     shell:   5    6.687795
     shell:   6    6.824280
     shell:   7    6.870980

     i    j  dist (Bohr)       stan-stan stan-bac bac-bac bac-stan
     1    1   0.00000000  V =    8.0000   0.0000   0.0000   0.0000
     1    3   3.94000000  V =    0.3000   0.0000   0.0000   0.0000
     1   24   4.02034480  V =    0.3000   0.0000   0.0000   0.0000
     1   27   3.94000000  V =    0.3000   0.0000   0.0000   0.0000
     1   35   3.94000000  V =    0.3000   0.0000   0.0000   0.0000
     1   48   4.02034480  V =    0.3000   0.0000   0.0000   0.0000
     1   56   4.02034480  V =    0.3000   0.0000   0.0000   0.0000
     2    2   0.00000000  V =    8.0000   0.0000   0.0000   0.0000
     2    3   3.94000000  V =    0.3000   0.0000   0.0000   0.0000
     2    4   3.86280783  V =    0.3000   0.0000   0.0000   0.0000
     2   35   3.94000000  V =    0.3000   0.0000   0.0000   0.0000
     2   63   3.94000000  V =    0.3000   0.0000   0.0000   0.0000
     2   64   3.86280783  V =    0.3000   0.0000   0.0000   0.0000
     2   88   3.86280783  V =    0.3000   0.0000   0.0000   0.0000
     3    1   3.94000000  V =    0.3000   0.0000   0.0000   0.0000
     3    2   3.94000000  V =    0.3000   0.0000   0.0000   0.0000
     3    3   0.00000000  V =    0.0000   0.0000   0.0000   0.0000
     3   50   3.94000000  V =    0.3000   0.0000   0.0000   0.0000
     3   77   3.94000000  V =    0.3000   0.0000   0.0000   0.0000
     3   78   3.94000000  V =    0.3000   0.0000   0.0000   0.0000
     3   85   3.94000000  V =    0.3000   0.0000   0.0000   0.0000
     4    2   3.86280783  V =    0.3000   0.0000   0.0000   0.0000
     4    4   0.00000000  V =    0.0000   0.0000   0.0000   0.0000
     4   26   3.86280783  V =    0.3000   0.0000   0.0000   0.0000
     4   50   3.86280783  V =    0.3000   0.0000   0.0000   0.0000
     4   57   4.02034480  V =    0.3000   0.0000   0.0000   0.0000
     4   65   4.02034480  V =    0.3000   0.0000   0.0000   0.0000
     4   89   4.02034480  V =    0.3000   0.0000   0.0000   0.0000

     Subspace diagonalization in iterative solution of the eigenvalue problem:
     a serial algorithm will be used


     G-vector sticks info
     --------------------
     sticks:   dense  smooth     PW     G-vecs:    dense   smooth      PW
     Sum        2567    1045    321                64627    16817    2961

     Using Slab Decomposition



     bravais-lattice index     =            0
     lattice parameter (alat)  =       7.8800  a.u.
     unit-cell volume          =     244.6519 (a.u.)^3
     number of atoms/cell      =            4
     number of atomic types    =            3
     number of electrons       =        48.00
     number of Kohn-Sham states=           29
     kinetic-energy cutoff     =      64.0000  Ry
     charge density cutoff     =     625.0000  Ry
     scf convergence threshold =      1.0E-13
     mixing beta               =       0.2500
     number of iterations used =            8  plain     mixing
     Exchange-correlation= XC-000I-000I-101L-130L-000I-000I
                           (   0   0 101 130   0   0   0)
     Hubbard projectors: ortho-atomic

     Internal variables: lda_plus_u =T, lda_plus_u_kind = 2

     celldm(1)=   7.880000  celldm(2)=   0.000000  celldm(3)=   0.000000
     celldm(4)=   0.000000  celldm(5)=   0.000000  celldm(6)=   0.000000

     crystal axes: (cart. coord. in units of alat)
               a(1) = (   1.000000   0.500000   0.500000 )  
               a(2) = (   0.500000   1.000000   0.500000 )  
               a(3) = (   0.500000   0.500000   1.000000 )  

     reciprocal axes: (cart. coord. in units 2 pi/alat)
               b(1) = (  1.500000 -0.500000 -0.500000 )  
               b(2) = ( -0.500000  1.500000 -0.500000 )  
               b(3) = ( -0.500000 -0.500000  1.500000 )  


     PseudoPot. # 1 for Ni read from file:
     ./ni_pbe_v1.4.uspp.F.UPF
     MD5 check sum: 1ee80287db30b12d2bc1f57a5b5d6409
     Pseudo is Ultrasoft + core correction, Zval = 18.0
     Generated by new atomic code, or converted to UPF format
     Using radial grid of  865 points,  6 beta functions with: 
                l(1) =   0
                l(2) =   0
                l(3) =   1
                l(4) =   1
                l(5) =   2
                l(6) =   2
     Q(r) pseudized with 10 coefficients,  rinner =    0.980   0.980   0.980
                                                       0.980   0.980

     PseudoPot. # 2 for Ni read from file:
     ./ni_pbe_v1.4.uspp.F.UPF
     MD5 check sum: 1ee80287db30b12d2bc1f57a5b5d6409
     Pseudo is Ultrasoft + core correction, Zval = 18.0
     Generated by new atomic code, or converted to UPF format
     Using radial grid of  865 points,  6 beta functions with: 
                l(1) =   0
                l(2) =   0
                l(3) =   1
                l(4) =   1
                l(5) =   2
                l(6) =   2
     Q(r) pseudized with 10 coefficients,  rinner =    0.980   0.980   0.980
                                                       0.980   0.980

     PseudoPot. # 3 for O  read from file:
     ./o_pbe_v1.2.uspp.F.UPF
     MD5 check sum: 734c27235a0248c51dbae37a1fbe46ec
     Pseudo is Ultrasoft + core correction, Zval =  6.0
     Generated by new atomic code, or converted to UPF format
     Using radial grid of  737 points,  5 beta functions with: 
                l(1) =   0
                l(2) =   0
                l(3) =   1
                l(4) =   1
                l(5) =   2
     Q(r) pseudized with  8 coefficients,  rinner =    0.900   0.900   0.900
                                                       0.900   0.900

     atomic species   valence    mass     pseudopotential
        Ni1           18.00     1.00000     Ni( 1.00)
        Ni2           18.00     1.00000     Ni( 1.00)
        O              6.00     1.00000     O ( 1.00)

     Starting magnetic structure 
     atomic species   magnetization
        Ni1          0.100
        Ni2         -0.100
        O            0.000

      6 Sym. Ops. (no inversion) found


                                    s                        frac. trans.

      isym =  1     identity                                     

 cryst.   s( 1) = (     1          0          0      )
                  (     0          1          0      )
                  (     0          0          1      )

 cart.    s( 1) = (  1.0000000  0.0000000  0.0000000 )
                  (  0.0000000  1.0000000  0.0000000 )
                  (  0.0000000  0.0000000  1.0000000 )


      isym =  2     120 deg rotation - cart. axis [-1,-1,-1]     

 cryst.   s( 2) = (     0          0          1      )
                  (     1          0          0      )
                  (     0          1          0      )

 cart.    s( 2) = (  0.0000000  1.0000000  0.0000000 )
                  (  0.0000000  0.0000000  1.0000000 )
                  (  1.0000000  0.0000000  0.0000000 )


      isym =  3     120 deg rotation - cart. axis [1,1,1]        

 cryst.   s( 3) = (     0          1          0      )
                  (     0          0          1      )
                  (     1          0          0      )

 cart.    s( 3) = (  0.0000000  0.0000000  1.0000000 )
                  (  1.0000000  0.0000000  0.0000000 )
                  (  0.0000000  1.0000000  0.0000000 )


      isym =  4     inv. 180 deg rotation - cart. axis [1,-1,0]  

 cryst.   s( 4) = (     0          1          0      )
                  (     1          0          0      )
                  (     0          0          1      )

 cart.    s( 4) = (  0.0000000  1.0000000  0.0000000 )
                  (  1.0000000  0.0000000  0.0000000 )
                  (  0.0000000  0.0000000  1.0000000 )


      isym =  5     inv. 180 deg rotation - cart. axis [-1,0,1]  

 cryst.   s( 5) = (     0          0          1      )
                  (     0          1          0      )
                  (     1          0          0      )

 cart.    s( 5) = (  0.0000000  0.0000000  1.0000000 )
                  (  0.0000000  1.0000000  0.0000000 )
                  (  1.0000000  0.0000000  0.0000000 )


      isym =  6     inv. 180 deg rotation - cart. axis [0,1,-1]  

 cryst.   s( 6) = (     1          0          0      )
                  (     0          0          1      )
                  (     0          1          0      )

 cart.    s( 6) = (  1.0000000  0.0000000  0.0000000 )
                  (  0.0000000  0.0000000  1.0000000 )
                  (  0.0000000  1.0000000  0.0000000 )


   Cartesian axes

     site n.     atom                  positions (alat units)
         1           Ni1 tau(   1) = (  -0.0000000  -0.0000000  -0.0000000  )
         2           Ni2 tau(   2) = (   0.5000000   0.5000000   0.0000000  )
         3           O   tau(   3) = (   0.5000000   0.0000000   0.0000000  )
         4           O   tau(   4) = (   0.4900000   0.4900000   0.4900000  )

   Crystallographic axes

     site n.     atom                  positions (cryst. coord.)
         1           Ni1 tau(   1) = (  0.0000000  0.0000000  0.0000000  )
         2           Ni2 tau(   2) = (  0.5000000  0.5000000 -0.5000000  )
         3           O   tau(   3) = (  0.7500000 -0.2500000 -0.2500000  )
         4           O   tau(   4) = (  0.2450000  0.2450000  0.2450000  )

     number of k points=    13  Gaussian smearing, width (Ry)=  0.0020
                       cart. coord. in units 2pi/alat
        k(    1) = (   0.0000000   0.0000000   0.0000000), wk =   0.0156250
        k(    2) = (  -0.1250000  -0.1250000   0.3750000), wk =   0.0937500
        k(    3) = (   0.2500000   0.2500000  -0.7500000), wk =   0.0468750
        k(    4) = (  -0.2500000   0.2500000   0.2500000), wk =   0.0937500
        k(    5) = (   0.1250000   0.6250000  -0.8750000), wk =   0.1875000
        k(    6) = (   0.0000000   0.5000000  -0.5000000), wk =   0.0937500
        k(    7) = (   0.5000000  -0.5000000  -0.5000000), wk =   0.0468750
        k(    8) = (   0.1250000   0.1250000   0.1250000), wk =   0.0312500
        k(    9) = (   0.5000000   0.5000000  -1.0000000), wk =   0.0937500
        k(   10) = (   0.3750000   0.3750000  -0.6250000), wk =   0.0937500
        k(   11) = (   0.8750000  -0.6250000  -0.6250000), wk =   0.0937500
        k(   12) = (   0.7500000  -0.7500000  -0.2500000), wk =   0.0937500
        k(   13) = (  -0.2500000  -0.2500000  -0.2500000), wk =   0.0156250

                       cryst. coord.
        k(    1) = (   0.0000000   0.0000000   0.0000000), wk =   0.0156250
        k(    2) = (   0.0000000   0.0000000   0.2500000), wk =   0.0937500
        k(    3) = (   0.0000000   0.0000000  -0.5000000), wk =   0.0468750
        k(    4) = (   0.0000000   0.2500000   0.2500000), wk =   0.0937500
        k(    5) = (   0.0000000   0.2500000  -0.5000000), wk =   0.1875000
        k(    6) = (   0.0000000   0.2500000  -0.2500000), wk =   0.0937500
        k(    7) = (   0.0000000  -0.5000000  -0.5000000), wk =   0.0468750
        k(    8) = (   0.2500000   0.2500000   0.2500000), wk =   0.0312500
        k(    9) = (   0.2500000   0.2500000  -0.5000000), wk =   0.0937500
        k(   10) = (   0.2500000   0.2500000  -0.2500000), wk =   0.0937500
        k(   11) = (   0.2500000  -0.5000000  -0.5000000), wk =   0.0937500
        k(   12) = (   0.2500000  -0.5000000  -0.2500000), wk =   0.0937500
        k(   13) = (  -0.5000000  -0.5000000  -0.5000000), wk =   0.0156250

     Dense  grid:    64627 G-vectors     FFT dimensions: (  80,  80,  80)

     Smooth grid:    16817 G-vectors     FFT dimensions: (  50,  50,  50)

     Dynamical RAM for                 wfc:       0.94 MB

     Dynamical RAM for     wfc (w. buffer):      25.27 MB

     Dynamical RAM for             U proj.:       0.52 MB

     Dynamical RAM for  U proj. (w. buff.):      13.94 MB

     Dynamical RAM for           str. fact:       2.96 MB

     Dynamical RAM for           local pot:       0.00 MB

     Dynamical RAM for          nlocal pot:       2.00 MB

     Dynamical RAM for                qrad:       6.02 MB

     Dynamical RAM for          rho,v,vnew:      29.35 MB

     Dynamical RAM for               rhoin:       9.78 MB

     Dynamical RAM for            rho*nmix:      31.56 MB

     Dynamical RAM for           G-vectors:       3.83 MB

     Dynamical RAM for          h,s,v(r/c):       0.15 MB

     Dynamical RAM for          <psi|beta>:       0.03 MB

     Dynamical RAM for                 psi:       1.87 MB

     Dynamical RAM for                hpsi:       1.87 MB

     Dynamical RAM for                spsi:       1.87 MB

     Dynamical RAM for      wfcinit/wfcrot:       2.22 MB

     Dynamical RAM for           addusdens:     186.38 MB

     Dynamical RAM for          addusforce:     188.37 MB

     Dynamical RAM for         addusstress:     199.69 MB

     Estimated static dynamical RAM per process >     120.54 MB

     Estimated max dynamical RAM per process >     351.78 MB

     WARNING: libxc functional with ID  101 depends
      on external parameters: check the user_guide of
      QE if you need to modify them or to check their
      default values.

     WARNING: libxc functional with ID  130 depends
      on external parameters: check the user_guide of
      QE if you need to modify them or to check their
      default values.

     Check: negative core charge=   -0.000010
     Generating pointlists ...
     new r_m :   0.2063 (alat units)  1.6253 (a.u.) for type    1
     new r_m :   0.2022 (alat units)  1.5934 (a.u.) for type    2
     new r_m :   0.2022 (alat units)  1.5934 (a.u.) for type    3

     Initial potential from superposition of free atoms

     starting charge      44.0000, renormalised to      48.0000

     HUBBARD ENERGY =    0.7056  (Ry)

     STARTING HUBBARD OCCUPATIONS:

     =================== HUBBARD OCCUPATIONS ===================
     ------------------------ ATOM    1 ------------------------
     Tr[ns(  1)] (up, down, total) =   5.00000  3.00000  8.00000
     Atomic magnetic moment for atom   1 =   2.00000
     SPIN  1
     eigenvalues:
       1.000  1.000  1.000  1.000  1.000
     eigenvectors (columns):
       1.000  0.000  0.000  0.000  0.000
       0.000  1.000  0.000  0.000  0.000
       0.000  0.000  1.000  0.000  0.000
       0.000  0.000  0.000  1.000  0.000
       0.000  0.000  0.000  0.000  1.000
     occupation matrix ns (before diag.):
       1.000  0.000  0.000  0.000  0.000
       0.000  1.000  0.000  0.000  0.000
       0.000  0.000  1.000  0.000  0.000
       0.000  0.000  0.000  1.000  0.000
       0.000  0.000  0.000  0.000  1.000
     SPIN  2
     eigenvalues:
       0.600  0.600  0.600  0.600  0.600
     eigenvectors (columns):
       1.000  0.000  0.000  0.000  0.000
       0.000  1.000  0.000  0.000  0.000
       0.000  0.000  1.000  0.000  0.000
       0.000  0.000  0.000  1.000  0.000
       0.000  0.000  0.000  0.000  1.000
     occupation matrix ns (before diag.):
       0.600  0.000  0.000  0.000  0.000
       0.000  0.600  0.000  0.000  0.000
       0.000  0.000  0.600  0.000  0.000
       0.000  0.000  0.000  0.600  0.000
       0.000  0.000  0.000  0.000  0.600
     ------------------------ ATOM    2 ------------------------
     Tr[ns(  2)] (up, down, total) =   3.00000  5.00000  8.00000
     Atomic magnetic moment for atom   2 =  -2.00000
     SPIN  1
     eigenvalues:
       0.600  0.600  0.600  0.600  0.600
     eigenvectors (columns):
       1.000  0.000  0.000  0.000  0.000
       0.000  1.000  0.000  0.000  0.000
       0.000  0.000  1.000  0.000  0.000
       0.000  0.000  0.000  1.000  0.000
       0.000  0.000  0.000  0.000  1.000
     occupation matrix ns (before diag.):
       0.600  0.000  0.000  0.000  0.000
       0.000  0.600  0.000  0.000  0.000
       0.000  0.000  0.600  0.000  0.000
       0.000  0.000  0.000  0.600  0.000
       0.000  0.000  0.000  0.000  0.600
     SPIN  2
     eigenvalues:
       1.000  1.000  1.000  1.000  1.000
     eigenvectors (columns):
       1.000  0.000  0.000  0.000  0.000
       0.000  1.000  0.000  0.000  0.000
       0.000  0.000  1.000  0.000  0.000
       0.000  0.000  0.000  1.000  0.000
       0.000  0.000  0.000  0.000  1.000
     occupation matrix ns (before diag.):
       1.000  0.000  0.000  0.000  0.000
       0.000  1.000  0.000  0.000  0.000
       0.000  0.000  1.000  0.000  0.000
       0.000  0.000  0.000  1.000  0.000
       0.000  0.000  0.000  0.000  1.000
     ------------------------ ATOM    3 ------------------------
     Tr[ns(  3)] (up, down, total) =   2.00000  2.00000  4.00000
     Atomic magnetic moment for atom   3 =   0.00000
     SPIN  1
     eigenvalues:
       0.667  0.667  0.667
     eigenvectors (columns):
       1.000  0.000  0.000
       0.000  1.000  0.000
       0.000  0.000  1.000
     occupation matrix ns (before diag.):
       0.667  0.000  0.000
       0.000  0.667  0.000
       0.000  0.000  0.667
     SPIN  2
     eigenvalues:
       0.667  0.667  0.667
     eigenvectors (columns):
       1.000  0.000  0.000
       0.000  1.000  0.000
       0.000  0.000  1.000
     occupation matrix ns (before diag.):
       0.667  0.000  0.000
       0.000  0.667  0.000
       0.000  0.000  0.667
     ------------------------ ATOM    4 ------------------------
     Tr[ns(  4)] (up, down, total) =   2.00000  2.00000  4.00000
     Atomic magnetic moment for atom   4 =   0.00000
     SPIN  1
     eigenvalues:
       0.667  0.667  0.667
     eigenvectors (columns):
       1.000  0.000  0.000
       0.000  1.000  0.000
       0.000  0.000  1.000
     occupation matrix ns (before diag.):
       0.667  0.000  0.000
       0.000  0.667  0.000
       0.000  0.000  0.667
     SPIN  2
     eigenvalues:
       0.667  0.667  0.667
     eigenvectors (columns):
       1.000  0.000  0.000
       0.000  1.000  0.000
       0.000  0.000  1.000
     occupation matrix ns (before diag.):
       0.667  0.000  0.000
       0.000  0.667  0.000
       0.000  0.000  0.667

     Number of occupied Hubbard levels =   24.0000

     Atomic wfc used for Hubbard projectors are orthogonalized

     Starting wfcs are   34 randomized atomic wfcs

     total cpu time spent up to now is        3.7 secs

     per-process dynamical memory:   350.5 Mb

     Self-consistent Calculation

     iteration #  1     ecut=    64.00 Ry     beta= 0.25
     Davidson diagonalization with overlap

---- Real-time Memory Report at c_bands before calling an iterative solver
           291 MiB given to the printing process from OS
           351 MiB allocation reported by mallinfo(arena+hblkhd)
         48488 MiB available memory on the node where the printing process lives
------------------
     ethr =  1.00E-02,  avg # of iterations =  3.5

     =================== HUBBARD OCCUPATIONS ===================
     ------------------------ ATOM    1 ------------------------
     Tr[ns(  1)] (up, down, total) =   3.71680  0.84730  4.56410
     Atomic magnetic moment for atom   1 =   2.86950
     SPIN  1
     eigenvalues:
       0.698  0.698  0.704  0.808  0.808
     eigenvectors (columns):
       0.161 -0.007  0.000 -0.065  0.985
      -0.432 -0.680 -0.577 -0.118  0.058
      -0.373  0.714 -0.577  0.109  0.073
       0.007  0.161  0.000 -0.985 -0.065
      -0.805  0.034  0.577 -0.009  0.131
     occupation matrix ns (before diag.):
       0.806  0.007  0.007  0.000  0.014
       0.007  0.702  0.001  0.012 -0.001
       0.007  0.001  0.702 -0.012 -0.001
       0.000  0.012 -0.012  0.806 -0.000
       0.014 -0.001 -0.001 -0.000  0.702
     SPIN  2
     eigenvalues:
       0.065  0.065  0.233  0.233  0.251
     eigenvectors (columns):
      -0.164 -0.986  0.017 -0.005  0.000
      -0.011  0.009  0.590  0.565 -0.577
       0.013  0.005  0.194 -0.793 -0.577
       0.986 -0.164  0.005  0.017 -0.000
       0.002  0.014  0.784 -0.228  0.577
     occupation matrix ns (before diag.):
       0.065  0.001  0.001  0.000  0.002
       0.001  0.239  0.006  0.002 -0.006
       0.001  0.006  0.239 -0.002 -0.006
       0.000  0.002 -0.002  0.065 -0.000
       0.002 -0.006 -0.006 -0.000  0.239
     ------------------------ ATOM    2 ------------------------
     Tr[ns(  2)] (up, down, total) =   0.77175  3.62532  4.39706
     Atomic magnetic moment for atom   2 =  -2.85357
     SPIN  1
     eigenvalues:
       0.055  0.055  0.206  0.206  0.250
     eigenvectors (columns):
       0.027  1.000 -0.010  0.002  0.000
      -0.007  0.004  0.558  0.596 -0.577
       0.007  0.004  0.237 -0.781 -0.577
      -1.000  0.027 -0.002 -0.010 -0.000
       0.000  0.008  0.795 -0.186  0.577
     occupation matrix ns (before diag.):
       0.055 -0.001 -0.001  0.000 -0.001
      -0.001  0.220  0.015 -0.001 -0.015
      -0.001  0.015  0.220  0.001 -0.015
       0.000 -0.001  0.001  0.055 -0.000
      -0.001 -0.015 -0.015 -0.000  0.220
     SPIN  2
     eigenvalues:
       0.687  0.687  0.747  0.747  0.756
     eigenvectors (columns):
      -0.247  0.022 -0.244 -0.938  0.000
       0.334 -0.717 -0.195 -0.054 -0.577
       0.454  0.648  0.144 -0.142 -0.577
       0.022  0.247 -0.938  0.244 -0.000
       0.788 -0.069 -0.051 -0.196  0.577
     occupation matrix ns (before diag.):
       0.744  0.006  0.006  0.000  0.012
       0.006  0.713  0.022  0.010 -0.022
       0.006  0.022  0.713 -0.010 -0.022
       0.000  0.010 -0.010  0.744 -0.000
       0.012 -0.022 -0.022 -0.000  0.713
     ------------------------ ATOM    3 ------------------------
     Tr[ns(  3)] (up, down, total) =   2.80473  2.81173  5.61646
     Atomic magnetic moment for atom   3 =  -0.00700
     SPIN  1
     eigenvalues:
       0.935  0.935  0.935
     eigenvectors (columns):
       0.664 -0.475 -0.577
       0.743  0.338  0.577
      -0.079 -0.813  0.577
     occupation matrix ns (before diag.):
       0.935 -0.000 -0.000
      -0.000  0.935  0.000
      -0.000  0.000  0.935
     SPIN  2
     eigenvalues:
       0.935  0.935  0.941
     eigenvectors (columns):
       0.707 -0.408 -0.577
       0.707  0.408  0.577
       0.000 -0.816  0.577
     occupation matrix ns (before diag.):
       0.937 -0.002 -0.002
      -0.002  0.937  0.002
      -0.002  0.002  0.937
     ------------------------ ATOM    4 ------------------------
     Tr[ns(  4)] (up, down, total) =   2.80791  2.80580  5.61371
     Atomic magnetic moment for atom   4 =   0.00211
     SPIN  1
     eigenvalues:
       0.935  0.935  0.938
     eigenvectors (columns):
       0.661 -0.480 -0.577
       0.746  0.332  0.577
      -0.085 -0.812  0.577
     occupation matrix ns (before diag.):
       0.936 -0.001 -0.001
      -0.001  0.936  0.001
      -0.001  0.001  0.936
     SPIN  2
     eigenvalues:
       0.933  0.933  0.939
     eigenvectors (columns):
       0.707 -0.408 -0.577
       0.707  0.408  0.577
       0.000 -0.816  0.577
     occupation matrix ns (before diag.):
       0.935 -0.002 -0.002
      -0.002  0.935  0.002
      -0.002  0.002  0.935

     Number of occupied Hubbard levels =   20.1913

     HUBBARD ENERGY =    0.9152  (Ry)

     total cpu time spent up to now is       15.4 secs

     total energy              =    -739.92923925 Ry
     estimated scf accuracy    <      50.75552497 Ry

     total magnetization       =    -0.08 Bohr mag/cell
     absolute magnetization    =     6.10 Bohr mag/cell

     iteration #  2     ecut=    64.00 Ry     beta= 0.25
     Davidson diagonalization with overlap

---- Real-time Memory Report at c_bands before calling an iterative solver
           395 MiB given to the printing process from OS
           592 MiB allocation reported by mallinfo(arena+hblkhd)
         48421 MiB available memory on the node where the printing process lives
------------------
     ethr =  1.00E-02,  avg # of iterations =  4.1

     =================== HUBBARD OCCUPATIONS ===================
     ------------------------ ATOM    1 ------------------------
     Tr[ns(  1)] (up, down, total) =   4.95329  4.66933  9.62261
     Atomic magnetic moment for atom   1 =   0.28396
     SPIN  1
     eigenvalues:
       0.982  0.982  0.996  0.997  0.997
     eigenvectors (columns):
       0.124 -0.992 -0.000  0.017 -0.005
      -0.012 -0.009  0.577 -0.576 -0.578
       0.013 -0.006  0.577 -0.213  0.788
      -0.992 -0.124  0.000  0.005  0.017
       0.002 -0.014 -0.577 -0.789  0.210
     occupation matrix ns (before diag.):
       0.982 -0.000 -0.000  0.000 -0.000
      -0.000  0.997 -0.000 -0.000  0.000
      -0.000 -0.000  0.997  0.000  0.000
       0.000 -0.000  0.000  0.982 -0.000
      -0.000  0.000  0.000 -0.000  0.997
     SPIN  2
     eigenvalues:
       0.859  0.859  0.980  0.985  0.985
     eigenvectors (columns):
      -0.101 -0.995  0.000  0.013  0.004
      -0.009  0.006 -0.577  0.616 -0.536
       0.010  0.005 -0.577  0.156  0.801
       0.995 -0.101 -0.000  0.004 -0.013
       0.001  0.011  0.577  0.772  0.265
     occupation matrix ns (before diag.):
       0.859  0.001  0.001  0.000  0.001
       0.001  0.984 -0.002  0.001  0.002
       0.001 -0.002  0.984 -0.001  0.002
       0.000  0.001 -0.001  0.859 -0.000
       0.001  0.002  0.002 -0.000  0.984
     ------------------------ ATOM    2 ------------------------
     Tr[ns(  2)] (up, down, total) =   4.75874  4.95486  9.71360
     Atomic magnetic moment for atom   2 =  -0.19612
     SPIN  1
     eigenvalues:
       0.897  0.897  0.987  0.989  0.989
     eigenvectors (columns):
       0.111 -0.994 -0.000  0.018 -0.006
      -0.013 -0.009  0.577 -0.621 -0.530
       0.014 -0.006  0.577 -0.148  0.803
      -0.994 -0.111  0.000  0.006  0.018
       0.002 -0.016 -0.577 -0.769  0.273
     occupation matrix ns (before diag.):
       0.897 -0.001 -0.001  0.000 -0.001
      -0.001  0.988 -0.001 -0.001  0.001
      -0.001 -0.001  0.988  0.001  0.001
       0.000 -0.001  0.001  0.897 -0.000
      -0.001  0.001  0.001 -0.000  0.988
     SPIN  2
     eigenvalues:
       0.982  0.982  0.997  0.997  0.997
     eigenvectors (columns):
      -0.095 -0.995  0.000 -0.018 -0.005
       0.013 -0.009  0.577  0.591 -0.563
      -0.014 -0.007  0.577  0.192  0.793
       0.995 -0.095  0.000 -0.005  0.018
      -0.001 -0.016 -0.577  0.783  0.230
     occupation matrix ns (before diag.):
       0.982 -0.000 -0.000  0.000 -0.000
      -0.000  0.997 -0.000 -0.000  0.000
      -0.000 -0.000  0.997  0.000  0.000
       0.000 -0.000  0.000  0.982 -0.000
      -0.000  0.000  0.000 -0.000  0.997
     ------------------------ ATOM    3 ------------------------
     Tr[ns(  3)] (up, down, total) =   1.46102  1.41657  2.87758
     Atomic magnetic moment for atom   3 =   0.04445
     SPIN  1
     eigenvalues:
       0.466  0.497  0.497
     eigenvectors (columns):
      -0.577  0.707  0.408
       0.577  0.707 -0.408
       0.577  0.000  0.816
     occupation matrix ns (before diag.):
       0.487  0.010  0.010
       0.010  0.487 -0.010
       0.010 -0.010  0.487
     SPIN  2
     eigenvalues:
       0.457  0.480  0.480
     eigenvectors (columns):
      -0.577 -0.688  0.440
       0.577 -0.725 -0.376
       0.577  0.037  0.816
     occupation matrix ns (before diag.):
       0.472  0.008  0.008
       0.008  0.472 -0.008
       0.008 -0.008  0.472
     ------------------------ ATOM    4 ------------------------
     Tr[ns(  4)] (up, down, total) =   1.46700  1.43224  2.89924
     Atomic magnetic moment for atom   4 =   0.03476
     SPIN  1
     eigenvalues:
       0.469  0.499  0.499
     eigenvectors (columns):
      -0.577  0.707  0.408
       0.577  0.707 -0.408
       0.577  0.000  0.816
     occupation matrix ns (before diag.):
       0.489  0.010  0.010
       0.010  0.489 -0.010
       0.010 -0.010  0.489
     SPIN  2
     eigenvalues:
       0.461  0.485  0.485
     eigenvectors (columns):
      -0.577 -0.679  0.454
       0.577 -0.732 -0.361
       0.577  0.054  0.815
     occupation matrix ns (before diag.):
       0.477  0.008  0.008
       0.008  0.477 -0.008
       0.008 -0.008  0.477

     Number of occupied Hubbard levels =   25.1130

     HUBBARD ENERGY =    0.8731  (Ry)

     total cpu time spent up to now is       29.6 secs

     total energy              =    -749.05299453 Ry
     estimated scf accuracy    <       9.51800513 Ry

     total magnetization       =     0.19 Bohr mag/cell
     absolute magnetization    =     0.82 Bohr mag/cell

     iteration #  3     ecut=    64.00 Ry     beta= 0.25
     Davidson diagonalization with overlap

---- Real-time Memory Report at c_bands before calling an iterative solver
           426 MiB given to the printing process from OS
           944 MiB allocation reported by mallinfo(arena+hblkhd)
         48388 MiB available memory on the node where the printing process lives
------------------
     ethr =  1.00E-02,  avg # of iterations =  2.0

     =================== HUBBARD OCCUPATIONS ===================
     ------------------------ ATOM    1 ------------------------
     Tr[ns(  1)] (up, down, total) =   4.93189  3.29263  8.22452
     Atomic magnetic moment for atom   1 =   1.63926
     SPIN  1
     eigenvalues:
       0.984  0.984  0.988  0.988  0.988
     eigenvectors (columns):
       0.157  0.987 -0.000  0.024  0.009
       0.016 -0.013  0.577  0.620 -0.531
      -0.020 -0.008  0.577  0.150  0.802
      -0.987  0.157  0.000  0.009 -0.024
      -0.003 -0.021 -0.577  0.770  0.272
     occupation matrix ns (before diag.):
       0.984  0.000  0.000  0.000  0.000
       0.000  0.988 -0.000  0.000  0.000
       0.000 -0.000  0.988 -0.000  0.000
       0.000  0.000 -0.000  0.984 -0.000
       0.000  0.000  0.000 -0.000  0.988
     SPIN  2
     eigenvalues:
       0.193  0.193  0.969  0.969  0.969
     eigenvectors (columns):
       0.066  0.998  0.014 -0.006 -0.000
       0.011 -0.007  0.645  0.500 -0.577
      -0.011 -0.006  0.110 -0.809 -0.577
      -0.998  0.066  0.006  0.014 -0.000
      -0.001 -0.013  0.756 -0.309  0.577
     occupation matrix ns (before diag.):
       0.193  0.005  0.005  0.000  0.010
       0.005  0.969  0.000  0.008 -0.000
       0.005  0.000  0.969 -0.008 -0.000
       0.000  0.008 -0.008  0.193 -0.000
       0.010 -0.000 -0.000 -0.000  0.969
     ------------------------ ATOM    2 ------------------------
     Tr[ns(  2)] (up, down, total) =   3.33362  4.93046  8.26408
     Atomic magnetic moment for atom   2 =  -1.59685
     SPIN  1
     eigenvalues:
       0.216  0.216  0.967  0.967  0.968
     eigenvectors (columns):
      -0.177 -0.984  0.003 -0.001 -0.000
      -0.002  0.002  0.597  0.557 -0.577
       0.003  0.001  0.184 -0.795 -0.577
       0.984 -0.177  0.001  0.003 -0.000
       0.000  0.003  0.781 -0.238  0.577
     occupation matrix ns (before diag.):
       0.216  0.001  0.001  0.000  0.002
       0.001  0.967  0.000  0.002 -0.000
       0.001  0.000  0.967 -0.002 -0.000
       0.000  0.002 -0.002  0.216 -0.000
       0.002 -0.000 -0.000 -0.000  0.967
     SPIN  2
     eigenvalues:
       0.982  0.982  0.989  0.989  0.989
     eigenvectors (columns):
      -0.098 -0.995  0.000  0.021  0.006
       0.015 -0.010  0.577 -0.577  0.577
      -0.016 -0.007  0.577 -0.211 -0.789
       0.995 -0.098  0.000  0.006 -0.021
      -0.002 -0.018 -0.577 -0.788 -0.211
     occupation matrix ns (before diag.):
       0.982 -0.000 -0.000  0.000 -0.000
      -0.000  0.989 -0.000 -0.000  0.000
      -0.000 -0.000  0.989  0.000  0.000
       0.000 -0.000  0.000  0.982 -0.000
      -0.000  0.000  0.000 -0.000  0.989
     ------------------------ ATOM    3 ------------------------
     Tr[ns(  3)] (up, down, total) =   2.35619  2.35244  4.70863
     Atomic magnetic moment for atom   3 =   0.00375
     SPIN  1
     eigenvalues:
       0.785  0.785  0.786
     eigenvectors (columns):
       0.729 -0.369 -0.577
       0.684  0.447  0.577
       0.045 -0.815  0.577
     occupation matrix ns (before diag.):
       0.785 -0.000 -0.000
      -0.000  0.785  0.000
      -0.000  0.000  0.785
     SPIN  2
     eigenvalues:
       0.782  0.782  0.788
     eigenvectors (columns):
       0.729 -0.367 -0.577
       0.683  0.448  0.577
       0.047 -0.815  0.577
     occupation matrix ns (before diag.):
       0.784 -0.002 -0.002
      -0.002  0.784  0.002
      -0.002  0.002  0.784
     ------------------------ ATOM    4 ------------------------
     Tr[ns(  4)] (up, down, total) =   2.33705  2.36567  4.70272
     Atomic magnetic moment for atom   4 =  -0.02861
     SPIN  1
     eigenvalues:
       0.775  0.775  0.787
     eigenvectors (columns):
       0.707 -0.408 -0.577
       0.707  0.408  0.577
       0.000 -0.816  0.577
     occupation matrix ns (before diag.):
       0.779 -0.004 -0.004
      -0.004  0.779  0.004
      -0.004  0.004  0.779
     SPIN  2
     eigenvalues:
       0.785  0.790  0.790
     eigenvectors (columns):
      -0.577 -0.672  0.464
       0.577 -0.738 -0.350
       0.577  0.066  0.814
     occupation matrix ns (before diag.):
       0.789  0.002  0.002
       0.002  0.789 -0.002
       0.002 -0.002  0.789

     Number of occupied Hubbard levels =   25.9000

     HUBBARD ENERGY =    0.8057  (Ry)

     total cpu time spent up to now is       38.1 secs

     total energy              =    -750.50300377 Ry
     estimated scf accuracy    <       0.69217161 Ry

     total magnetization       =     0.00 Bohr mag/cell
     absolute magnetization    =     3.48 Bohr mag/cell

     iteration #  4     ecut=    64.00 Ry     beta= 0.25
     Davidson diagonalization with overlap

---- Real-time Memory Report at c_bands before calling an iterative solver
           440 MiB given to the printing process from OS
          1136 MiB allocation reported by mallinfo(arena+hblkhd)
         48376 MiB available memory on the node where the printing process lives
------------------
     ethr =  1.44E-03,  avg # of iterations =  1.7

     =================== HUBBARD OCCUPATIONS ===================
     ------------------------ ATOM    1 ------------------------
     Tr[ns(  1)] (up, down, total) =   4.94943  3.32973  8.27915
     Atomic magnetic moment for atom   1 =   1.61970
     SPIN  1
     eigenvalues:
       0.989  0.989  0.990  0.990  0.990
     eigenvectors (columns):
      -0.080 -0.997 -0.012 -0.004  0.000
      -0.008  0.006 -0.614  0.538 -0.577
       0.009  0.004 -0.159 -0.801 -0.577
       0.997 -0.080 -0.004  0.012 -0.000
       0.001  0.010 -0.773 -0.262  0.577
     occupation matrix ns (before diag.):
       0.989  0.000  0.000  0.000  0.000
       0.000  0.990  0.000  0.000 -0.000
       0.000  0.000  0.990 -0.000 -0.000
       0.000  0.000 -0.000  0.989 -0.000
       0.000 -0.000 -0.000 -0.000  0.990
     SPIN  2
     eigenvalues:
       0.197  0.197  0.978  0.978  0.979
     eigenvectors (columns):
      -0.048  0.999 -0.012 -0.005 -0.000
      -0.009 -0.006 -0.648  0.497 -0.577
       0.009 -0.005 -0.106 -0.809 -0.577
       0.999  0.048 -0.005  0.012 -0.000
       0.001 -0.010 -0.754 -0.313  0.577
     occupation matrix ns (before diag.):
       0.197  0.004  0.004  0.000  0.008
       0.004  0.978  0.000  0.007 -0.000
       0.004  0.000  0.978 -0.007 -0.000
       0.000  0.007 -0.007  0.197 -0.000
       0.008 -0.000 -0.000 -0.000  0.978
     ------------------------ ATOM    2 ------------------------
     Tr[ns(  2)] (up, down, total) =   3.32871  4.94064  8.26935
     Atomic magnetic moment for atom   2 =  -1.61192
     SPIN  1
     eigenvalues:
       0.198  0.198  0.978  0.978  0.978
     eigenvectors (columns):
      -0.113  0.994 -0.002  0.001 -0.000
       0.002  0.001  0.656  0.486  0.577
      -0.002  0.001  0.092 -0.811  0.577
       0.994  0.113 -0.001 -0.002 -0.000
      -0.000  0.002  0.749 -0.326 -0.577
     occupation matrix ns (before diag.):
       0.198 -0.001 -0.001  0.000 -0.002
      -0.001  0.978  0.000 -0.001 -0.000
      -0.001  0.000  0.978  0.001 -0.000
       0.000 -0.001  0.001  0.198 -0.000
      -0.002 -0.000 -0.000 -0.000  0.978
     SPIN  2
     eigenvalues:
       0.985  0.985  0.990  0.990  0.990
     eigenvectors (columns):
      -0.142 -0.989  0.000 -0.027 -0.006
       0.017 -0.014  0.577  0.554 -0.600
      -0.021 -0.008  0.577  0.242  0.779
       0.989 -0.142  0.000 -0.006  0.027
      -0.003 -0.022 -0.577  0.796  0.180
     occupation matrix ns (before diag.):
       0.985 -0.000 -0.000  0.000 -0.000
      -0.000  0.990 -0.000 -0.000  0.000
      -0.000 -0.000  0.990  0.000  0.000
       0.000 -0.000  0.000  0.985 -0.000
      -0.000  0.000  0.000 -0.000  0.990
     ------------------------ ATOM    3 ------------------------
     Tr[ns(  3)] (up, down, total) =   2.36870  2.35192  4.72062
     Atomic magnetic moment for atom   3 =   0.01679
     SPIN  1
     eigenvalues:
       0.789  0.790  0.790
     eigenvectors (columns):
      -0.577 -0.675  0.459
       0.577 -0.735 -0.355
       0.577  0.060  0.814
     occupation matrix ns (before diag.):
       0.790  0.000  0.000
       0.000  0.790 -0.000
       0.000 -0.000  0.790
     SPIN  2
     eigenvalues:
       0.782  0.782  0.787
     eigenvectors (columns):
       0.707 -0.408 -0.577
       0.707  0.408  0.577
       0.000 -0.816  0.577
     occupation matrix ns (before diag.):
       0.784 -0.002 -0.002
      -0.002  0.784  0.002
      -0.002  0.002  0.784
     ------------------------ ATOM    4 ------------------------
     Tr[ns(  4)] (up, down, total) =   2.35493  2.36579  4.72073
     Atomic magnetic moment for atom   4 =  -0.01086
     SPIN  1
     eigenvalues:
       0.781  0.781  0.793
     eigenvectors (columns):
       0.677 -0.457 -0.577
       0.734  0.358  0.577
      -0.057 -0.815  0.577
     occupation matrix ns (before diag.):
       0.785 -0.004 -0.004
      -0.004  0.785  0.004
      -0.004  0.004  0.785
     SPIN  2
     eigenvalues:
       0.784  0.791  0.791
     eigenvectors (columns):
      -0.577 -0.677  0.456
       0.577 -0.734 -0.359
       0.577  0.056  0.815
     occupation matrix ns (before diag.):
       0.789  0.002  0.002
       0.002  0.789 -0.002
       0.002 -0.002  0.789

     Number of occupied Hubbard levels =   25.9898

     HUBBARD ENERGY =    0.4858  (Ry)

     total cpu time spent up to now is       44.9 secs

     total energy              =    -750.73141830 Ry
     estimated scf accuracy    <       0.37255249 Ry

     total magnetization       =    -0.00 Bohr mag/cell
     absolute magnetization    =     3.47 Bohr mag/cell

     iteration #  5     ecut=    64.00 Ry     beta= 0.25
     Davidson diagonalization with overlap

---- Real-time Memory Report at c_bands before calling an iterative solver
           453 MiB given to the printing process from OS
          1322 MiB allocation reported by mallinfo(arena+hblkhd)
         48363 MiB available memory on the node where the printing process lives
------------------
     ethr =  7.76E-04,  avg # of iterations =  2.0

     =================== HUBBARD OCCUPATIONS ===================
     ------------------------ ATOM    1 ------------------------
     Tr[ns(  1)] (up, down, total) =   4.96689  3.29837  8.26526
     Atomic magnetic moment for atom   1 =   1.66851
     SPIN  1
     eigenvalues:
       0.993  0.993  0.993  0.993  0.994
     eigenvectors (columns):
       0.133  0.991 -0.015  0.004  0.000
      -0.010  0.008  0.595  0.559 -0.577
       0.012  0.005  0.187 -0.795 -0.577
      -0.991  0.133 -0.004 -0.015 -0.000
       0.002  0.013  0.782 -0.235  0.577
     occupation matrix ns (before diag.):
       0.993 -0.000 -0.000  0.000 -0.000
      -0.000  0.994  0.000 -0.000 -0.000
      -0.000  0.000  0.994  0.000 -0.000
       0.000 -0.000  0.000  0.993 -0.000
      -0.000 -0.000 -0.000 -0.000  0.994
     SPIN  2
     eigenvalues:
       0.166  0.166  0.988  0.988  0.989
     eigenvectors (columns):
       0.369  0.930  0.010 -0.003 -0.000
       0.005 -0.007  0.597  0.557 -0.577
      -0.009 -0.001  0.184 -0.795 -0.577
      -0.930  0.369  0.003  0.010 -0.000
      -0.003 -0.008  0.781 -0.238  0.577
     occupation matrix ns (before diag.):
       0.166  0.004  0.004  0.000  0.007
       0.004  0.988  0.000  0.006 -0.000
       0.004  0.000  0.988 -0.006 -0.000
       0.000  0.006 -0.006  0.166 -0.000
       0.007 -0.000 -0.000 -0.000  0.988
     ------------------------ ATOM    2 ------------------------
     Tr[ns(  2)] (up, down, total) =   3.34175  4.96900  8.31075
     Atomic magnetic moment for atom   2 =  -1.62725
     SPIN  1
     eigenvalues:
       0.186  0.186  0.990  0.990  0.990
     eigenvectors (columns):
      -0.066 -0.998  0.000 -0.005 -0.001
       0.004 -0.002  0.577  0.579 -0.576
      -0.004 -0.002  0.577  0.210  0.789
       0.998 -0.066  0.000 -0.001  0.005
      -0.000 -0.004 -0.577  0.788  0.213
     occupation matrix ns (before diag.):
       0.186 -0.002 -0.002  0.000 -0.003
      -0.002  0.990 -0.000 -0.003  0.000
      -0.002 -0.000  0.990  0.003  0.000
       0.000 -0.003  0.003  0.186 -0.000
      -0.003  0.000  0.000 -0.000  0.990
     SPIN  2
     eigenvalues:
       0.993  0.993  0.994  0.995  0.995
     eigenvectors (columns):
       0.014 -0.999  0.000 -0.038 -0.009
      -0.027 -0.016 -0.577  0.562 -0.591
       0.028 -0.016 -0.577  0.231  0.783
      -0.999 -0.014 -0.000 -0.009  0.038
       0.000 -0.032  0.577  0.793  0.192
     occupation matrix ns (before diag.):
       0.993 -0.000 -0.000  0.000 -0.000
      -0.000  0.994 -0.000 -0.000  0.000
      -0.000 -0.000  0.994  0.000  0.000
       0.000 -0.000  0.000  0.993 -0.000
      -0.000  0.000  0.000 -0.000  0.994
     ------------------------ ATOM    3 ------------------------
     Tr[ns(  3)] (up, down, total) =   2.36004  2.36060  4.72063
     Atomic magnetic moment for atom   3 =  -0.00056
     SPIN  1
     eigenvalues:
       0.786  0.787  0.787
     eigenvectors (columns):
      -0.577  0.707  0.408
       0.577  0.707 -0.408
       0.577  0.000  0.816
     occupation matrix ns (before diag.):
       0.787  0.000  0.000
       0.000  0.787 -0.000
       0.000 -0.000  0.787
     SPIN  2
     eigenvalues:
       0.786  0.786  0.789
     eigenvectors (columns):
       0.707 -0.408 -0.577
       0.707  0.408  0.577
       0.000 -0.816  0.577
     occupation matrix ns (before diag.):
       0.787 -0.001 -0.001
      -0.001  0.787  0.001
      -0.001  0.001  0.787
     ------------------------ ATOM    4 ------------------------
     Tr[ns(  4)] (up, down, total) =   2.34656  2.37120  4.71776
     Atomic magnetic moment for atom   4 =  -0.02465
     SPIN  1
     eigenvalues:
       0.778  0.778  0.790
     eigenvectors (columns):
       0.663 -0.476 -0.577
       0.744  0.336  0.577
      -0.081 -0.812  0.577
     occupation matrix ns (before diag.):
       0.782 -0.004 -0.004
      -0.004  0.782  0.004
      -0.004  0.004  0.782
     SPIN  2
     eigenvalues:
       0.785  0.793  0.793
     eigenvectors (columns):
      -0.577  0.707  0.408
       0.577  0.707 -0.408
       0.577  0.000  0.816
     occupation matrix ns (before diag.):
       0.790  0.003  0.003
       0.003  0.790 -0.003
       0.003 -0.003  0.790

     Number of occupied Hubbard levels =   26.0144

     HUBBARD ENERGY =    0.3108  (Ry)

     total cpu time spent up to now is       54.0 secs

     total energy              =    -750.80215257 Ry
     estimated scf accuracy    <       0.06110728 Ry

     total magnetization       =     0.00 Bohr mag/cell
     absolute magnetization    =     3.52 Bohr mag/cell

     iteration #  6     ecut=    64.00 Ry     beta= 0.25
     Davidson diagonalization with overlap

---- Real-time Memory Report at c_bands before calling an iterative solver
           467 MiB given to the printing process from OS
          1538 MiB allocation reported by mallinfo(arena+hblkhd)
         48347 MiB available memory on the node where the printing process lives
------------------
     ethr =  1.27E-04,  avg # of iterations =  3.6

     =================== HUBBARD OCCUPATIONS ===================
     ------------------------ ATOM    1 ------------------------
     Tr[ns(  1)] (up, down, total) =   4.97215  3.27473  8.24688
     Atomic magnetic moment for atom   1 =   1.69743
     SPIN  1
     eigenvalues:
       0.994  0.994  0.994  0.995  0.995
     eigenvectors (columns):
       0.024 -0.010 -0.000 -0.187 -0.982
       0.643  0.503 -0.577 -0.016  0.014
       0.114 -0.808 -0.577  0.020  0.007
       0.010  0.024  0.000  0.982 -0.187
       0.757 -0.305  0.577  0.004  0.021
     occupation matrix ns (before diag.):
       0.995 -0.000 -0.000  0.000 -0.000
      -0.000  0.994  0.000 -0.000 -0.000
      -0.000  0.000  0.994  0.000 -0.000
       0.000 -0.000  0.000  0.995 -0.000
      -0.000 -0.000 -0.000 -0.000  0.994
     SPIN  2
     eigenvalues:
       0.152  0.152  0.990  0.990  0.990
     eigenvectors (columns):
       0.086  0.996  0.010 -0.003 -0.000
       0.007 -0.005  0.593  0.561 -0.577
      -0.008 -0.004  0.189 -0.794 -0.577
      -0.996  0.086  0.003  0.010 -0.000
      -0.001 -0.008  0.782 -0.234  0.577
     occupation matrix ns (before diag.):
       0.152  0.004  0.004  0.000  0.007
       0.004  0.990  0.000  0.006 -0.000
       0.004  0.000  0.990 -0.006 -0.000
       0.000  0.006 -0.006  0.152 -0.000
       0.007 -0.000 -0.000 -0.000  0.990
     ------------------------ ATOM    2 ------------------------
     Tr[ns(  2)] (up, down, total) =   3.28659  4.97075  8.25733
     Atomic magnetic moment for atom   2 =  -1.68416
     SPIN  1
     eigenvalues:
       0.157  0.157  0.991  0.991  0.991
     eigenvectors (columns):
      -0.329  0.944  0.000 -0.006 -0.002
       0.003  0.004  0.577  0.587 -0.568
      -0.005  0.001  0.577  0.199  0.792
       0.944  0.329  0.000 -0.002  0.006
      -0.002  0.005 -0.577  0.785  0.224
     occupation matrix ns (before diag.):
       0.157 -0.002 -0.002  0.000 -0.004
      -0.002  0.991 -0.000 -0.003  0.000
      -0.002 -0.000  0.991  0.003  0.000
       0.000 -0.003  0.003  0.157 -0.000
      -0.004  0.000  0.000 -0.000  0.991
     SPIN  2
     eigenvalues:
       0.994  0.994  0.994  0.995  0.995
     eigenvectors (columns):
       0.069 -0.996  0.000 -0.055 -0.013
      -0.038 -0.026 -0.577  0.560 -0.592
       0.041 -0.020 -0.577  0.232  0.781
      -0.996 -0.069 -0.000 -0.013  0.055
       0.003 -0.046  0.577  0.793  0.189
     occupation matrix ns (before diag.):
       0.994 -0.000 -0.000  0.000 -0.000
      -0.000  0.995 -0.000 -0.000  0.000
      -0.000 -0.000  0.995  0.000  0.000
       0.000 -0.000  0.000  0.994 -0.000
      -0.000  0.000  0.000 -0.000  0.995
     ------------------------ ATOM    3 ------------------------
     Tr[ns(  3)] (up, down, total) =   2.37437  2.36412  4.73850
     Atomic magnetic moment for atom   3 =   0.01025
     SPIN  1
     eigenvalues:
       0.791  0.792  0.792
     eigenvectors (columns):
      -0.577 -0.681  0.451
       0.577 -0.731 -0.364
       0.577  0.050  0.815
     occupation matrix ns (before diag.):
       0.791  0.000  0.000
       0.000  0.791 -0.000
       0.000 -0.000  0.791
     SPIN  2
     eigenvalues:
       0.787  0.787  0.790
     eigenvectors (columns):
       0.707 -0.408 -0.577
       0.707  0.408  0.577
       0.000 -0.816  0.577
     occupation matrix ns (before diag.):
       0.788 -0.001 -0.001
      -0.001  0.788  0.001
      -0.001  0.001  0.788
     ------------------------ ATOM    4 ------------------------
     Tr[ns(  4)] (up, down, total) =   2.36391  2.37460  4.73851
     Atomic magnetic moment for atom   4 =  -0.01069
     SPIN  1
     eigenvalues:
       0.785  0.785  0.795
     eigenvectors (columns):
       0.707 -0.408 -0.577
       0.707  0.408  0.577
       0.000 -0.816  0.577
     occupation matrix ns (before diag.):
       0.788 -0.003 -0.003
      -0.003  0.788  0.003
      -0.003  0.003  0.788
     SPIN  2
     eigenvalues:
       0.786  0.794  0.794
     eigenvectors (columns):
      -0.577  0.707  0.408
       0.577  0.707 -0.408
       0.577  0.000  0.816
     occupation matrix ns (before diag.):
       0.792  0.003  0.003
       0.003  0.792 -0.003
       0.003 -0.003  0.792

     Number of occupied Hubbard levels =   25.9812

     HUBBARD ENERGY =    0.1997  (Ry)

     total cpu time spent up to now is       64.3 secs

     total energy              =    -750.81412930 Ry
     estimated scf accuracy    <       0.01487120 Ry

     total magnetization       =     0.00 Bohr mag/cell
     absolute magnetization    =     3.59 Bohr mag/cell

     iteration #  7     ecut=    64.00 Ry     beta= 0.25
     Davidson diagonalization with overlap

---- Real-time Memory Report at c_bands before calling an iterative solver
           487 MiB given to the printing process from OS
          1923 MiB allocation reported by mallinfo(arena+hblkhd)
         48323 MiB available memory on the node where the printing process lives
------------------
     ethr =  3.10E-05,  avg # of iterations =  2.9

     =================== HUBBARD OCCUPATIONS ===================
     ------------------------ ATOM    1 ------------------------
     Tr[ns(  1)] (up, down, total) =   4.97342  3.24530  8.21873
     Atomic magnetic moment for atom   1 =   1.72812
     SPIN  1
     eigenvalues:
       0.994  0.994  0.994  0.995  0.995
     eigenvectors (columns):
      -0.022  0.008 -0.000 -0.157 -0.987
      -0.619 -0.532 -0.577 -0.015  0.012
      -0.151  0.802 -0.577  0.018  0.007
      -0.008 -0.022  0.000  0.987 -0.157
      -0.770  0.271  0.577  0.003  0.019
     occupation matrix ns (before diag.):
       0.995 -0.000 -0.000  0.000 -0.000
      -0.000  0.994  0.000 -0.000 -0.000
      -0.000  0.000  0.994  0.000 -0.000
       0.000 -0.000  0.000  0.995 -0.000
      -0.000 -0.000 -0.000 -0.000  0.994
     SPIN  2
     eigenvalues:
       0.137  0.137  0.990  0.990  0.991
     eigenvectors (columns):
      -0.538 -0.843  0.009 -0.003 -0.000
      -0.004  0.007  0.608  0.545 -0.577
       0.008 -0.000  0.168 -0.799 -0.577
       0.843 -0.538  0.003  0.009 -0.000
       0.004  0.007  0.776 -0.254  0.577
     occupation matrix ns (before diag.):
       0.137  0.003  0.003  0.000  0.007
       0.003  0.990  0.000  0.006 -0.000
       0.003  0.000  0.990 -0.006 -0.000
       0.000  0.006 -0.006  0.137 -0.000
       0.007 -0.000 -0.000 -0.000  0.990
     ------------------------ ATOM    2 ------------------------
     Tr[ns(  2)] (up, down, total) =   3.25226  4.97151  8.22376
     Atomic magnetic moment for atom   2 =  -1.71925
     SPIN  1
     eigenvalues:
       0.140  0.140  0.991  0.991  0.991
     eigenvectors (columns):
       0.256 -0.967 -0.000 -0.006 -0.002
      -0.004 -0.004 -0.577  0.625 -0.525
       0.005 -0.001 -0.577  0.142  0.804
      -0.967 -0.256 -0.000 -0.002  0.006
       0.001 -0.005  0.577  0.767  0.279
     occupation matrix ns (before diag.):
       0.140 -0.002 -0.002  0.000 -0.004
      -0.002  0.991 -0.000 -0.004  0.000
      -0.002 -0.000  0.991  0.004  0.000
       0.000 -0.004  0.004  0.140 -0.000
      -0.004  0.000  0.000 -0.000  0.991
     SPIN  2
     eigenvalues:
       0.994  0.994  0.994  0.995  0.995
     eigenvectors (columns):
      -0.049 -0.992  0.000 -0.112 -0.013
      -0.082 -0.042 -0.577  0.481 -0.653
       0.078 -0.050 -0.577  0.325  0.743
      -0.992  0.049 -0.000 -0.013  0.112
      -0.005 -0.092  0.577  0.806  0.090
     occupation matrix ns (before diag.):
       0.994 -0.000 -0.000  0.000 -0.000
      -0.000  0.994 -0.000 -0.000  0.000
      -0.000 -0.000  0.994  0.000  0.000
       0.000 -0.000  0.000  0.994 -0.000
      -0.000  0.000  0.000 -0.000  0.994
     ------------------------ ATOM    3 ------------------------
     Tr[ns(  3)] (up, down, total) =   2.38384  2.37318  4.75702
     Atomic magnetic moment for atom   3 =   0.01066
     SPIN  1
     eigenvalues:
       0.794  0.795  0.795
     eigenvectors (columns):
      -0.577 -0.736  0.353
       0.577 -0.674 -0.461
       0.577 -0.062  0.814
     occupation matrix ns (before diag.):
       0.795  0.000  0.000
       0.000  0.795 -0.000
       0.000 -0.000  0.795
     SPIN  2
     eigenvalues:
       0.790  0.790  0.793
     eigenvectors (columns):
       0.627 -0.523 -0.577
       0.767  0.281  0.577
      -0.140 -0.804  0.577
     occupation matrix ns (before diag.):
       0.791 -0.001 -0.001
      -0.001  0.791  0.001
      -0.001  0.001  0.791
     ------------------------ ATOM    4 ------------------------
     Tr[ns(  4)] (up, down, total) =   2.37490  2.38244  4.75734
     Atomic magnetic moment for atom   4 =  -0.00753
     SPIN  1
     eigenvalues:
       0.789  0.789  0.798
     eigenvectors (columns):
       0.667 -0.470 -0.577
       0.741  0.343  0.577
      -0.074 -0.813  0.577
     occupation matrix ns (before diag.):
       0.792 -0.003 -0.003
      -0.003  0.792  0.003
      -0.003  0.003  0.792
     SPIN  2
     eigenvalues:
       0.789  0.797  0.797
     eigenvectors (columns):
      -0.577  0.707  0.408
       0.577  0.707 -0.408
       0.577  0.000  0.816
     occupation matrix ns (before diag.):
       0.794  0.002  0.002
       0.002  0.794 -0.002
       0.002 -0.002  0.794

     Number of occupied Hubbard levels =   25.9569

     HUBBARD ENERGY =    0.1639  (Ry)

     total cpu time spent up to now is       75.8 secs

     total energy              =    -750.81795555 Ry
     estimated scf accuracy    <       0.00291163 Ry

     total magnetization       =     0.00 Bohr mag/cell
     absolute magnetization    =     3.65 Bohr mag/cell

     iteration #  8     ecut=    64.00 Ry     beta= 0.25
     Davidson diagonalization with overlap

---- Real-time Memory Report at c_bands before calling an iterative solver
           532 MiB given to the printing process from OS
         -1257 MiB allocation reported by mallinfo(arena+hblkhd)
         48282 MiB available memory on the node where the printing process lives
------------------
     ethr =  6.07E-06,  avg # of iterations =  4.2

     =================== HUBBARD OCCUPATIONS ===================
     ------------------------ ATOM    1 ------------------------
     Tr[ns(  1)] (up, down, total) =   4.97454  3.22535  8.19990
     Atomic magnetic moment for atom   1 =   1.74919
     SPIN  1
     eigenvalues:
       0.994  0.994  0.994  0.996  0.996
     eigenvectors (columns):
      -0.017  0.006 -0.000 -0.107 -0.994
      -0.616 -0.535 -0.577 -0.012  0.009
      -0.155  0.801 -0.577  0.013  0.006
      -0.006 -0.017  0.000  0.994 -0.107
      -0.772  0.266  0.577  0.002  0.014
     occupation matrix ns (before diag.):
       0.996 -0.000 -0.000  0.000 -0.000
      -0.000  0.994  0.000 -0.000 -0.000
      -0.000  0.000  0.994  0.000 -0.000
       0.000 -0.000  0.000  0.996 -0.000
      -0.000 -0.000 -0.000 -0.000  0.994
     SPIN  2
     eigenvalues:
       0.127  0.127  0.991  0.991  0.991
     eigenvectors (columns):
       0.186  0.982  0.009 -0.003 -0.000
       0.006 -0.005  0.591  0.564 -0.577
      -0.007 -0.002  0.193 -0.793 -0.577
      -0.982  0.186  0.003  0.009 -0.000
      -0.001 -0.007  0.784 -0.230  0.577
     occupation matrix ns (before diag.):
       0.127  0.003  0.003  0.000  0.006
       0.003  0.991  0.000  0.006 -0.000
       0.003  0.000  0.991 -0.006 -0.000
       0.000  0.006 -0.006  0.127 -0.000
       0.006 -0.000 -0.000 -0.000  0.991
     ------------------------ ATOM    2 ------------------------
     Tr[ns(  2)] (up, down, total) =   3.23162  4.97240  8.20403
     Atomic magnetic moment for atom   2 =  -1.74078
     SPIN  1
     eigenvalues:
       0.130  0.130  0.991  0.991  0.991
     eigenvectors (columns):
      -0.102 -0.995  0.000 -0.006 -0.002
       0.005 -0.003  0.577  0.626 -0.524
      -0.005 -0.002  0.577  0.140  0.804
       0.995 -0.102  0.000 -0.002  0.006
      -0.001 -0.006 -0.577  0.767  0.281
     occupation matrix ns (before diag.):
       0.130 -0.002 -0.002  0.000 -0.005
      -0.002  0.991 -0.000 -0.004  0.000
      -0.002 -0.000  0.991  0.004  0.000
       0.000 -0.004  0.004  0.130 -0.000
      -0.005  0.000  0.000 -0.000  0.991
     SPIN  2
     eigenvalues:
       0.994  0.994  0.994  0.995  0.995
     eigenvectors (columns):
      -0.000  0.378 -0.474  0.571  0.553
      -0.577  0.642  0.097  0.121 -0.481
      -0.577 -0.237 -0.604 -0.476  0.136
       0.000  0.474  0.378 -0.553  0.571
       0.577  0.405 -0.507 -0.356 -0.345
     occupation matrix ns (before diag.):
       0.995 -0.000 -0.000  0.000 -0.000
      -0.000  0.994 -0.000 -0.000  0.000
      -0.000 -0.000  0.994  0.000  0.000
       0.000 -0.000  0.000  0.995 -0.000
      -0.000  0.000  0.000 -0.000  0.994
     ------------------------ ATOM    3 ------------------------
     Tr[ns(  3)] (up, down, total) =   2.38858  2.37911  4.76769
     Atomic magnetic moment for atom   3 =   0.00947
     SPIN  1
     eigenvalues:
       0.795  0.797  0.797
     eigenvectors (columns):
      -0.577  0.707  0.408
       0.577  0.707 -0.408
       0.577  0.000  0.816
     occupation matrix ns (before diag.):
       0.796  0.000  0.000
       0.000  0.796 -0.000
       0.000 -0.000  0.796
     SPIN  2
     eigenvalues:
       0.792  0.792  0.794
     eigenvectors (columns):
       0.707 -0.408 -0.577
       0.707  0.408  0.577
       0.000 -0.816  0.577
     occupation matrix ns (before diag.):
       0.793 -0.001 -0.001
      -0.001  0.793  0.001
      -0.001  0.001  0.793
     ------------------------ ATOM    4 ------------------------
     Tr[ns(  4)] (up, down, total) =   2.38086  2.38728  4.76813
     Atomic magnetic moment for atom   4 =  -0.00642
     SPIN  1
     eigenvalues:
       0.791  0.791  0.799
     eigenvectors (columns):
       0.707 -0.408 -0.577
       0.707  0.408  0.577
       0.000 -0.816  0.577
     occupation matrix ns (before diag.):
       0.794 -0.003 -0.003
      -0.003  0.794  0.003
      -0.003  0.003  0.794
     SPIN  2
     eigenvalues:
       0.791  0.798  0.798
     eigenvectors (columns):
      -0.577  0.707  0.408
       0.577  0.707 -0.408
       0.577  0.000  0.816
     occupation matrix ns (before diag.):
       0.796  0.002  0.002
       0.002  0.796 -0.002
       0.002 -0.002  0.796

     Number of occupied Hubbard levels =   25.9398

     HUBBARD ENERGY =    0.1496  (Ry)

     total cpu time spent up to now is       91.3 secs

     total energy              =    -750.81877515 Ry
     estimated scf accuracy    <       0.00063028 Ry

     total magnetization       =     0.00 Bohr mag/cell
     absolute magnetization    =     3.68 Bohr mag/cell

     iteration #  9     ecut=    64.00 Ry     beta= 0.25
     Davidson diagonalization with overlap

---- Real-time Memory Report at c_bands before calling an iterative solver
           572 MiB given to the printing process from OS
          -358 MiB allocation reported by mallinfo(arena+hblkhd)
         48239 MiB available memory on the node where the printing process lives
------------------
     ethr =  1.31E-06,  avg # of iterations =  2.9

     =================== HUBBARD OCCUPATIONS ===================
     ------------------------ ATOM    1 ------------------------
     Tr[ns(  1)] (up, down, total) =   4.97539  3.21928  8.19468
     Atomic magnetic moment for atom   1 =   1.75611
     SPIN  1
     eigenvalues:
       0.995  0.995  0.995  0.996  0.996
     eigenvectors (columns):
      -0.015  0.005 -0.000 -0.238 -0.971
      -0.615 -0.537 -0.577 -0.009  0.009
      -0.158  0.801 -0.577  0.012  0.004
      -0.005 -0.015  0.000  0.971 -0.238
      -0.773  0.264  0.577  0.003  0.012
     occupation matrix ns (before diag.):
       0.996 -0.000 -0.000  0.000 -0.000
      -0.000  0.995  0.000 -0.000 -0.000
      -0.000  0.000  0.995  0.000 -0.000
       0.000 -0.000  0.000  0.996 -0.000
      -0.000 -0.000 -0.000 -0.000  0.995
     SPIN  2
     eigenvalues:
       0.123  0.123  0.991  0.991  0.991
     eigenvectors (columns):
       0.445  0.896  0.008 -0.003 -0.000
       0.004 -0.006  0.611  0.542 -0.577
      -0.007 -0.000  0.163 -0.800 -0.577
      -0.896  0.445  0.003  0.008 -0.000
      -0.003 -0.006  0.774 -0.258  0.577
     occupation matrix ns (before diag.):
       0.123  0.003  0.003  0.000  0.006
       0.003  0.991  0.000  0.005 -0.000
       0.003  0.000  0.991 -0.005 -0.000
       0.000  0.005 -0.005  0.123 -0.000
       0.006 -0.000 -0.000 -0.000  0.991
     ------------------------ ATOM    2 ------------------------
     Tr[ns(  2)] (up, down, total) =   3.22581  4.97335  8.19916
     Atomic magnetic moment for atom   2 =  -1.74753
     SPIN  1
     eigenvalues:
       0.127  0.127  0.991  0.991  0.991
     eigenvectors (columns):
      -0.144  0.990  0.000 -0.007 -0.002
       0.005  0.004  0.577  0.611 -0.541
      -0.006  0.002  0.577  0.163  0.800
       0.990  0.144  0.000 -0.002  0.007
      -0.001  0.006 -0.577  0.774  0.259
     occupation matrix ns (before diag.):
       0.127 -0.003 -0.003  0.000 -0.005
      -0.003  0.991 -0.000 -0.004  0.000
      -0.003 -0.000  0.991  0.004  0.000
       0.000 -0.004  0.004  0.127 -0.000
      -0.005  0.000  0.000 -0.000  0.991
     SPIN  2
     eigenvalues:
       0.995  0.995  0.995  0.995  0.995
     eigenvectors (columns):
      -0.000  0.207 -0.132 -0.419 -0.874
      -0.577  0.702  0.366 -0.113  0.165
      -0.577 -0.034 -0.791  0.200  0.015
       0.000  0.132  0.207  0.874 -0.419
       0.577  0.668 -0.425  0.087  0.180
     occupation matrix ns (before diag.):
       0.995 -0.000 -0.000  0.000 -0.000
      -0.000  0.995 -0.000 -0.000  0.000
      -0.000 -0.000  0.995  0.000  0.000
       0.000 -0.000  0.000  0.995 -0.000
      -0.000  0.000  0.000 -0.000  0.995
     ------------------------ ATOM    3 ------------------------
     Tr[ns(  3)] (up, down, total) =   2.38858  2.37975  4.76833
     Atomic magnetic moment for atom   3 =   0.00883
     SPIN  1
     eigenvalues:
       0.795  0.797  0.797
     eigenvectors (columns):
      -0.577  0.707  0.408
       0.577  0.707 -0.408
       0.577  0.000  0.816
     occupation matrix ns (before diag.):
       0.796  0.000  0.000
       0.000  0.796 -0.000
       0.000 -0.000  0.796
     SPIN  2
     eigenvalues:
       0.793  0.793  0.795
     eigenvectors (columns):
       0.707 -0.408 -0.577
       0.707  0.408  0.577
       0.000 -0.816  0.577
     occupation matrix ns (before diag.):
       0.793 -0.001 -0.001
      -0.001  0.793  0.001
      -0.001  0.001  0.793
     ------------------------ ATOM    4 ------------------------
     Tr[ns(  4)] (up, down, total) =   2.38141  2.38752  4.76893
     Atomic magnetic moment for atom   4 =  -0.00612
     SPIN  1
     eigenvalues:
       0.791  0.791  0.799
     eigenvectors (columns):
       0.707 -0.408 -0.577
       0.707  0.408  0.577
       0.000 -0.816  0.577
     occupation matrix ns (before diag.):
       0.794 -0.003 -0.003
      -0.003  0.794  0.003
      -0.003  0.003  0.794
     SPIN  2
     eigenvalues:
       0.791  0.798  0.798
     eigenvectors (columns):
      -0.577 -0.674  0.460
       0.577 -0.736 -0.354
       0.577  0.061  0.814
     occupation matrix ns (before diag.):
       0.796  0.002  0.002
       0.002  0.796 -0.002
       0.002 -0.002  0.796

     Number of occupied Hubbard levels =   25.9311

     HUBBARD ENERGY =    0.1464  (Ry)

     total cpu time spent up to now is      101.9 secs

     total energy              =    -750.81888509 Ry
     estimated scf accuracy    <       0.00003934 Ry

     total magnetization       =    -0.00 Bohr mag/cell
     absolute magnetization    =     3.69 Bohr mag/cell

     iteration # 10     ecut=    64.00 Ry     beta= 0.25
     Davidson diagonalization with overlap

---- Real-time Memory Report at c_bands before calling an iterative solver
           587 MiB given to the printing process from OS
          -342 MiB allocation reported by mallinfo(arena+hblkhd)
         48226 MiB available memory on the node where the printing process lives
------------------
     ethr =  8.20E-08,  avg # of iterations =  5.1

     =================== HUBBARD OCCUPATIONS ===================
     ------------------------ ATOM    1 ------------------------
     Tr[ns(  1)] (up, down, total) =   4.97563  3.21915  8.19478
     Atomic magnetic moment for atom   1 =   1.75648
     SPIN  1
     eigenvalues:
       0.995  0.995  0.995  0.996  0.996
     eigenvectors (columns):
      -0.014  0.005 -0.000 -0.090 -0.996
      -0.626 -0.524 -0.577 -0.010  0.007
      -0.141  0.804 -0.577  0.011  0.005
      -0.005 -0.014  0.000  0.996 -0.090
      -0.767  0.280  0.577  0.001  0.012
     occupation matrix ns (before diag.):
       0.996 -0.000 -0.000  0.000 -0.000
      -0.000  0.995  0.000 -0.000 -0.000
      -0.000  0.000  0.995  0.000 -0.000
       0.000 -0.000  0.000  0.996 -0.000
      -0.000 -0.000 -0.000 -0.000  0.995
     SPIN  2
     eigenvalues:
       0.123  0.123  0.991  0.991  0.991
     eigenvectors (columns):
       0.449  0.894  0.008 -0.002 -0.000
       0.004 -0.006  0.584  0.571 -0.577
      -0.007 -0.000  0.203 -0.791 -0.577
      -0.894  0.449  0.002  0.008 -0.000
      -0.003 -0.006  0.786 -0.220  0.577
     occupation matrix ns (before diag.):
       0.123  0.003  0.003  0.000  0.006
       0.003  0.991  0.000  0.005 -0.000
       0.003  0.000  0.991 -0.005 -0.000
       0.000  0.005 -0.005  0.123 -0.000
       0.006 -0.000 -0.000 -0.000  0.991
     ------------------------ ATOM    2 ------------------------
     Tr[ns(  2)] (up, down, total) =   3.22484  4.97351  8.19834
     Atomic magnetic moment for atom   2 =  -1.74867
     SPIN  1
     eigenvalues:
       0.126  0.126  0.991  0.991  0.991
     eigenvectors (columns):
      -0.128 -0.992  0.000 -0.007 -0.002
       0.005 -0.004  0.577  0.557 -0.597
      -0.006 -0.002  0.577  0.239  0.781
       0.992 -0.128  0.000 -0.002  0.007
      -0.001 -0.006 -0.577  0.796  0.184
     occupation matrix ns (before diag.):
       0.126 -0.003 -0.003  0.000 -0.005
      -0.003  0.991 -0.000 -0.005  0.000
      -0.003 -0.000  0.991  0.005  0.000
       0.000 -0.005  0.005  0.126 -0.000
      -0.005  0.000  0.000 -0.000  0.991
     SPIN  2
     eigenvalues:
       0.995  0.995  0.995  0.995  0.995
     eigenvectors (columns):
      -0.000  0.217 -0.159  0.449  0.852
      -0.577  0.720  0.316  0.117 -0.186
      -0.577 -0.086 -0.782 -0.220 -0.009
       0.000  0.159  0.217 -0.852  0.449
       0.577  0.634 -0.465 -0.102 -0.195
     occupation matrix ns (before diag.):
       0.995 -0.000 -0.000  0.000 -0.000
      -0.000  0.995 -0.000 -0.000  0.000
      -0.000 -0.000  0.995  0.000  0.000
       0.000 -0.000  0.000  0.995 -0.000
      -0.000  0.000  0.000 -0.000  0.995
     ------------------------ ATOM    3 ------------------------
     Tr[ns(  3)] (up, down, total) =   2.38835  2.37933  4.76768
     Atomic magnetic moment for atom   3 =   0.00902
     SPIN  1
     eigenvalues:
       0.795  0.796  0.796
     eigenvectors (columns):
      -0.577 -0.666  0.472
       0.577 -0.742 -0.341
       0.577  0.075  0.813
     occupation matrix ns (before diag.):
       0.796  0.000  0.000
       0.000  0.796 -0.000
       0.000 -0.000  0.796
     SPIN  2
     eigenvalues:
       0.792  0.792  0.794
     eigenvectors (columns):
       0.707 -0.408 -0.577
       0.707  0.408  0.577
       0.000 -0.816  0.577
     occupation matrix ns (before diag.):
       0.793 -0.001 -0.001
      -0.001  0.793  0.001
      -0.001  0.001  0.793
     ------------------------ ATOM    4 ------------------------
     Tr[ns(  4)] (up, down, total) =   2.38130  2.38701  4.76830
     Atomic magnetic moment for atom   4 =  -0.00571
     SPIN  1
     eigenvalues:
       0.791  0.791  0.799
     eigenvectors (columns):
       0.743 -0.337 -0.577
       0.664  0.475  0.577
       0.079 -0.813  0.577
     occupation matrix ns (before diag.):
       0.794 -0.003 -0.003
      -0.003  0.794  0.003
      -0.003  0.003  0.794
     SPIN  2
     eigenvalues:
       0.791  0.798  0.798
     eigenvectors (columns):
      -0.577  0.707  0.408
       0.577  0.707 -0.408
       0.577  0.000  0.816
     occupation matrix ns (before diag.):
       0.796  0.002  0.002
       0.002  0.796 -0.002
       0.002 -0.002  0.796

     Number of occupied Hubbard levels =   25.9291

     HUBBARD ENERGY =    0.1511  (Ry)

     total cpu time spent up to now is      118.7 secs

     total energy              =    -750.81890306 Ry
     estimated scf accuracy    <       0.00001384 Ry

     total magnetization       =     0.00 Bohr mag/cell
     absolute magnetization    =     3.69 Bohr mag/cell

     iteration # 11     ecut=    64.00 Ry     beta= 0.25
     Davidson diagonalization with overlap

---- Real-time Memory Report at c_bands before calling an iterative solver
           614 MiB given to the printing process from OS
           155 MiB allocation reported by mallinfo(arena+hblkhd)
         48197 MiB available memory on the node where the printing process lives
------------------
     ethr =  2.88E-08,  avg # of iterations =  2.2

     =================== HUBBARD OCCUPATIONS ===================
     ------------------------ ATOM    1 ------------------------
     Tr[ns(  1)] (up, down, total) =   4.97554  3.21982  8.19536
     Atomic magnetic moment for atom   1 =   1.75572
     SPIN  1
     eigenvalues:
       0.995  0.995  0.995  0.996  0.996
     eigenvectors (columns):
      -0.014  0.004 -0.000 -0.129 -0.991
      -0.599 -0.554 -0.577 -0.009  0.007
      -0.180  0.796 -0.577  0.011  0.005
      -0.004 -0.014  0.000  0.991 -0.129
      -0.780  0.242  0.577  0.002  0.012
     occupation matrix ns (before diag.):
       0.996 -0.000 -0.000  0.000 -0.000
      -0.000  0.995  0.000 -0.000 -0.000
      -0.000  0.000  0.995  0.000 -0.000
       0.000 -0.000  0.000  0.996 -0.000
      -0.000 -0.000 -0.000 -0.000  0.995
     SPIN  2
     eigenvalues:
       0.123  0.123  0.991  0.991  0.991
     eigenvectors (columns):
      -0.079  0.997 -0.007 -0.003 -0.000
      -0.005 -0.004 -0.621  0.531 -0.577
       0.006 -0.003 -0.149 -0.803 -0.577
       0.997  0.079 -0.003  0.007 -0.000
       0.001 -0.006 -0.770 -0.272  0.577
     occupation matrix ns (before diag.):
       0.124  0.003  0.003  0.000  0.006
       0.003  0.991  0.000  0.005 -0.000
       0.003  0.000  0.991 -0.005 -0.000
       0.000  0.005 -0.005  0.124 -0.000
       0.006 -0.000 -0.000 -0.000  0.991
     ------------------------ ATOM    2 ------------------------
     Tr[ns(  2)] (up, down, total) =   3.22586  4.97345  8.19930
     Atomic magnetic moment for atom   2 =  -1.74759
     SPIN  1
     eigenvalues:
       0.126  0.126  0.991  0.991  0.991
     eigenvectors (columns):
      -0.075  0.997  0.000 -0.007 -0.002
       0.005  0.004  0.577  0.613 -0.539
      -0.006  0.003  0.577  0.160  0.801
       0.997  0.075  0.000 -0.002  0.007
      -0.000  0.006 -0.577  0.773  0.262
     occupation matrix ns (before diag.):
       0.127 -0.003 -0.003  0.000 -0.005
      -0.003  0.991 -0.000 -0.005  0.000
      -0.003 -0.000  0.991  0.005  0.000
       0.000 -0.005  0.005  0.127 -0.000
      -0.005  0.000  0.000 -0.000  0.991
     SPIN  2
     eigenvalues:
       0.995  0.995  0.995  0.995  0.995
     eigenvectors (columns):
       0.000  0.249 -0.202 -0.480  0.816
       0.577  0.722  0.276 -0.129 -0.228
       0.577 -0.122 -0.764  0.262  0.002
      -0.000  0.202  0.249  0.816  0.480
      -0.577  0.601 -0.487  0.133 -0.226
     occupation matrix ns (before diag.):
       0.995 -0.000 -0.000  0.000 -0.000
      -0.000  0.995 -0.000 -0.000  0.000
      -0.000 -0.000  0.995  0.000  0.000
       0.000 -0.000  0.000  0.995 -0.000
      -0.000  0.000  0.000 -0.000  0.995
     ------------------------ ATOM    3 ------------------------
     Tr[ns(  3)] (up, down, total) =   2.38814  2.37931  4.76746
     Atomic magnetic moment for atom   3 =   0.00883
     SPIN  1
     eigenvalues:
       0.795  0.796  0.796
     eigenvectors (columns):
      -0.577 -0.675  0.459
       0.577 -0.735 -0.355
       0.577  0.060  0.814
     occupation matrix ns (before diag.):
       0.796  0.000  0.000
       0.000  0.796 -0.000
       0.000 -0.000  0.796
     SPIN  2
     eigenvalues:
       0.792  0.792  0.794
     eigenvectors (columns):
       0.660 -0.481 -0.577
       0.746  0.331  0.577
      -0.087 -0.812  0.577
     occupation matrix ns (before diag.):
       0.793 -0.001 -0.001
      -0.001  0.793  0.001
      -0.001  0.001  0.793
     ------------------------ ATOM    4 ------------------------
     Tr[ns(  4)] (up, down, total) =   2.38110  2.38698  4.76808
     Atomic magnetic moment for atom   4 =  -0.00587
     SPIN  1
     eigenvalues:
       0.791  0.791  0.799
     eigenvectors (columns):
       0.737 -0.351 -0.577
       0.672  0.463  0.577
       0.065 -0.814  0.577
     occupation matrix ns (before diag.):
       0.794 -0.003 -0.003
      -0.003  0.794  0.003
      -0.003  0.003  0.794
     SPIN  2
     eigenvalues:
       0.791  0.798  0.798
     eigenvectors (columns):
      -0.577 -0.732  0.362
       0.577 -0.679 -0.453
       0.577 -0.053  0.815
     occupation matrix ns (before diag.):
       0.796  0.002  0.002
       0.002  0.796 -0.002
       0.002 -0.002  0.796

     Number of occupied Hubbard levels =   25.9302

     HUBBARD ENERGY =    0.1512  (Ry)

     total cpu time spent up to now is      127.4 secs

     total energy              =    -750.81890613 Ry
     estimated scf accuracy    <       0.00000164 Ry

     total magnetization       =    -0.00 Bohr mag/cell
     absolute magnetization    =     3.69 Bohr mag/cell

     iteration # 12     ecut=    64.00 Ry     beta= 0.25
     Davidson diagonalization with overlap

---- Real-time Memory Report at c_bands before calling an iterative solver
           626 MiB given to the printing process from OS
            56 MiB allocation reported by mallinfo(arena+hblkhd)
         48187 MiB available memory on the node where the printing process lives
------------------
     ethr =  3.41E-09,  avg # of iterations =  4.6

     =================== HUBBARD OCCUPATIONS ===================
     ------------------------ ATOM    1 ------------------------
     Tr[ns(  1)] (up, down, total) =   4.97555  3.21981  8.19536
     Atomic magnetic moment for atom   1 =   1.75574
     SPIN  1
     eigenvalues:
       0.995  0.995  0.995  0.996  0.996
     eigenvectors (columns):
      -0.013  0.004 -0.000 -0.177 -0.984
      -0.595 -0.559 -0.577 -0.009  0.007
      -0.187  0.795 -0.577  0.011  0.004
      -0.004 -0.013  0.000  0.984 -0.177
      -0.782  0.236  0.577  0.002  0.011
     occupation matrix ns (before diag.):
       0.996 -0.000 -0.000  0.000 -0.000
      -0.000  0.995  0.000 -0.000 -0.000
      -0.000  0.000  0.995  0.000 -0.000
       0.000 -0.000  0.000  0.996 -0.000
      -0.000 -0.000 -0.000 -0.000  0.995
     SPIN  2
     eigenvalues:
       0.123  0.123  0.991  0.991  0.991
     eigenvectors (columns):
      -0.181 -0.984  0.007 -0.002 -0.000
      -0.005  0.004  0.609  0.544 -0.577
       0.006  0.002  0.166 -0.799 -0.577
       0.984 -0.181  0.002  0.007 -0.000
       0.001  0.006  0.775 -0.256  0.577
     occupation matrix ns (before diag.):
       0.124  0.003  0.003  0.000  0.005
       0.003  0.991  0.000  0.005 -0.000
       0.003  0.000  0.991 -0.005 -0.000
       0.000  0.005 -0.005  0.124 -0.000
       0.005 -0.000 -0.000 -0.000  0.991
     ------------------------ ATOM    2 ------------------------
     Tr[ns(  2)] (up, down, total) =   3.22610  4.97347  8.19957
     Atomic magnetic moment for atom   2 =  -1.74737
     SPIN  1
     eigenvalues:
       0.127  0.127  0.991  0.991  0.991
     eigenvectors (columns):
      -0.289  0.957  0.000 -0.008 -0.002
       0.004  0.005  0.577  0.590 -0.564
      -0.006  0.001  0.577  0.193  0.793
       0.957  0.289  0.000 -0.002  0.008
      -0.002  0.006 -0.577  0.784  0.229
     occupation matrix ns (before diag.):
       0.127 -0.003 -0.003  0.000 -0.006
      -0.003  0.991 -0.000 -0.005  0.000
      -0.003 -0.000  0.991  0.005  0.000
       0.000 -0.005  0.005  0.127 -0.000
      -0.006  0.000  0.000 -0.000  0.991
     SPIN  2
     eigenvalues:
       0.995  0.995  0.995  0.995  0.995
     eigenvectors (columns):
       0.000  0.263 -0.181 -0.507  0.801
       0.577  0.699  0.332 -0.121 -0.231
       0.577 -0.062 -0.771  0.260  0.011
      -0.000  0.181  0.263  0.801  0.507
      -0.577  0.637 -0.439  0.139 -0.220
     occupation matrix ns (before diag.):
       0.995 -0.000 -0.000  0.000 -0.000
      -0.000  0.995 -0.000 -0.000  0.000
      -0.000 -0.000  0.995  0.000  0.000
       0.000 -0.000  0.000  0.995 -0.000
      -0.000  0.000  0.000 -0.000  0.995
     ------------------------ ATOM    3 ------------------------
     Tr[ns(  3)] (up, down, total) =   2.38805  2.37935  4.76740
     Atomic magnetic moment for atom   3 =   0.00870
     SPIN  1
     eigenvalues:
       0.795  0.796  0.796
     eigenvectors (columns):
      -0.577  0.707  0.408
       0.577  0.707 -0.408
       0.577  0.000  0.816
     occupation matrix ns (before diag.):
       0.796  0.000  0.000
       0.000  0.796 -0.000
       0.000 -0.000  0.796
     SPIN  2
     eigenvalues:
       0.792  0.792  0.794
     eigenvectors (columns):
       0.707 -0.408 -0.577
       0.707  0.408  0.577
       0.000 -0.816  0.577
     occupation matrix ns (before diag.):
       0.793 -0.001 -0.001
      -0.001  0.793  0.001
      -0.001  0.001  0.793
     ------------------------ ATOM    4 ------------------------
     Tr[ns(  4)] (up, down, total) =   2.38101  2.38699  4.76800
     Atomic magnetic moment for atom   4 =  -0.00599
     SPIN  1
     eigenvalues:
       0.791  0.791  0.799
     eigenvectors (columns):
       0.757 -0.306 -0.577
       0.643  0.503  0.577
       0.114 -0.809  0.577
     occupation matrix ns (before diag.):
       0.794 -0.003 -0.003
      -0.003  0.794  0.003
      -0.003  0.003  0.794
     SPIN  2
     eigenvalues:
       0.791  0.798  0.798
     eigenvectors (columns):
      -0.577  0.707  0.408
       0.577  0.707 -0.408
       0.577  0.000  0.816
     occupation matrix ns (before diag.):
       0.796  0.002  0.002
       0.002  0.796 -0.002
       0.002 -0.002  0.796

     Number of occupied Hubbard levels =   25.9303

     HUBBARD ENERGY =    0.1514  (Ry)

     total cpu time spent up to now is      141.1 secs

     total energy              =    -750.81890698 Ry
     estimated scf accuracy    <       0.00000061 Ry

     total magnetization       =     0.00 Bohr mag/cell
[...]
    -4.5107  -4.2503   5.7366   6.1023   6.5896   6.7552   7.4163   7.7211
     8.2927   8.9473   9.5359  10.3190  11.1568  11.3658  12.0653  12.3636
    17.4717  18.1335  20.1408  21.3613  25.5473

     occupation numbers 
     1.0000   1.0000   1.0000   1.0000   1.0000   1.0000   1.0000   1.0000
     1.0000   1.0000   1.0000   1.0000   1.0000   1.0000   1.0000   1.0000
     1.0000   1.0000   1.0000   1.0000   1.0000   1.0000   1.0000   1.0000
     0.0000   0.0000   0.0000   0.0000   0.0000

          k = 0.7500-0.7500-0.2500 (  2106 PWs)   bands (ev):

   -90.9834 -88.2955 -51.3672 -51.3538 -51.3457 -48.7557 -48.7460 -48.7394
    -4.0479  -3.8850   6.0235   6.0553   6.2715   6.5135   7.1137   8.1369
     8.1641   8.9772   9.8299  10.0984  10.5328  10.6021  11.8190  12.1379
    17.9665  18.0003  21.6563  22.6051  24.0357

     occupation numbers 
     1.0000   1.0000   1.0000   1.0000   1.0000   1.0000   1.0000   1.0000
     1.0000   1.0000   1.0000   1.0000   1.0000   1.0000   1.0000   1.0000
     1.0000   1.0000   1.0000   1.0000   1.0000   1.0000   1.0000   1.0000
     0.0000   0.0000   0.0000   0.0000   0.0000

          k =-0.2500-0.2500-0.2500 (  2106 PWs)   bands (ev):

   -90.9852 -88.2975 -51.3701 -51.3360 -51.3360 -48.7430 -48.7345 -48.7345
    -4.8445  -4.6905   6.0172   6.0172   6.3978   7.2970   7.3251   7.3251
     8.6365   8.6365   9.9636  10.7069  11.3463  11.3463  12.8283  12.8283
    17.9715  17.9715  18.7779  19.1842  26.1716

     occupation numbers 
     1.0000   1.0000   1.0000   1.0000   1.0000   1.0000   1.0000   1.0000
     1.0000   1.0000   1.0000   1.0000   1.0000   1.0000   1.0000   1.0000
     1.0000   1.0000   1.0000   1.0000   1.0000   1.0000   1.0000   1.0000
     0.0000   0.0000   0.0000   0.0000   0.0000

 ------ SPIN DOWN ----------


          k = 0.0000 0.0000 0.0000 (  2123 PWs)   bands (ev):

   -90.7071 -88.5766 -51.0801 -51.0801 -51.0600 -49.0226 -49.0055 -49.0055
    -5.4530  -3.9377   5.3335   6.0200   6.0200   7.4856   7.4856   7.7922
     8.6515   8.6515  10.1825  12.0116  12.0116  12.0566  12.2902  12.2902
    16.1811  17.7648  17.7648  20.0848  24.8172

     occupation numbers 
     1.0000   1.0000   1.0000   1.0000   1.0000   1.0000   1.0000   1.0000
     1.0000   1.0000   1.0000   1.0000   1.0000   1.0000   1.0000   1.0000
     1.0000   1.0000   1.0000   1.0000   1.0000   1.0000   1.0000   1.0000
     0.0000   0.0000   0.0000   0.0000   0.0000

          k =-0.1250-0.1250 0.3750 (  2112 PWs)   bands (ev):

   -90.7061 -88.5756 -51.0915 -51.0830 -51.0584 -49.0210 -49.0182 -49.0088
    -4.8400  -3.8987   5.8414   6.1765   6.5435   6.9666   7.5857   7.8511
     8.1143   8.8568   9.9206  10.2309  11.0995  11.2823  12.1378  12.5158
    17.2913  17.6982  19.3390  22.7810  23.9773

     occupation numbers 
     1.0000   1.0000   1.0000   1.0000   1.0000   1.0000   1.0000   1.0000
     1.0000   1.0000   1.0000   1.0000   1.0000   1.0000   1.0000   1.0000
     1.0000   1.0000   1.0000   1.0000   1.0000   1.0000   1.0000   1.0000
     0.0000   0.0000   0.0000   0.0000   0.0000

          k = 0.2500 0.2500-0.7500 (  2106 PWs)   bands (ev):

   -90.7052 -88.5746 -51.1028 -51.0859 -51.0568 -49.0307 -49.0194 -49.0120
    -4.1055  -3.8654   6.0940   6.2000   6.2534   6.7615   7.7020   7.9454
     8.0108   8.8786   9.6362  10.0345  10.5226  10.8518  11.7168  12.4376
    17.6594  17.6658  22.0222  22.1776  24.2174

     occupation numbers 
     1.0000   1.0000   1.0000   1.0000   1.0000   1.0000   1.0000   1.0000
     1.0000   1.0000   1.0000   1.0000   1.0000   1.0000   1.0000   1.0000
     1.0000   1.0000   1.0000   1.0000   1.0000   1.0000   1.0000   1.0000
     0.0000   0.0000   0.0000   0.0000   0.0000

          k =-0.2500 0.2500 0.2500 (  2106 PWs)   bands (ev):

   -90.7061 -88.5756 -51.0915 -51.0830 -51.0584 -49.0210 -49.0182 -49.0087
    -4.7744  -3.9815   6.1265   6.1771   6.3680   6.7698   7.5857   7.9820
     8.1052   8.8950   9.8487  10.3450  10.7108  11.0215  12.5356  12.8006
    17.6173  17.6496  18.9562  22.1380  24.3498

     occupation numbers 
     1.0000   1.0000   1.0000   1.0000   1.0000   1.0000   1.0000   1.0000
     1.0000   1.0000   1.0000   1.0000   1.0000   1.0000   1.0000   1.0000
     1.0000   1.0000   1.0000   1.0000   1.0000   1.0000   1.0000   1.0000
     0.0000   0.0000   0.0000   0.0000   0.0000

          k = 0.1250 0.6250-0.8750 (  2118 PWs)   bands (ev):

   -90.7052 -88.5746 -51.0986 -51.0902 -51.0568 -49.0260 -49.0193 -49.0167
    -4.0849  -3.8917   5.8753   6.4327   6.5554   6.8603   7.1743   7.8822
     8.5068   8.6556   9.7931  10.0744  10.2713  10.8985  11.7856  12.1155
    17.5086  17.8532  21.7613  22.8783  24.5111

     occupation numbers 
     1.0000   1.0000   1.0000   1.0000   1.0000   1.0000   1.0000   1.0000
     1.0000   1.0000   1.0000   1.0000   1.0000   1.0000   1.0000   1.0000
     1.0000   1.0000   1.0000   1.0000   1.0000   1.0000   1.0000   1.0000
     0.0000   0.0000   0.0000   0.0000   0.0000

          k = 0.0000 0.5000-0.5000 (  2113 PWs)   bands (ev):

   -90.7052 -88.5746 -51.0986 -51.0902 -51.0568 -49.0261 -49.0194 -49.0166
    -4.1191  -3.8612   5.7732   6.6215   6.7119   6.9841   7.2306   7.5362
     8.4315   8.7307   9.8829  10.1076  10.1734  11.1115  11.2976  12.1492
    17.3636  18.0439  21.7038  23.2007  25.1268

     occupation numbers 
     1.0000   1.0000   1.0000   1.0000   1.0000   1.0000   1.0000   1.0000
     1.0000   1.0000   1.0000   1.0000   1.0000   1.0000   1.0000   1.0000
     1.0000   1.0000   1.0000   1.0000   1.0000   1.0000   1.0000   1.0000
     0.0000   0.0000   0.0000   0.0000   0.0000

          k = 0.5000-0.5000-0.5000 (  2090 PWs)   bands (ev):

   -90.7052 -88.5747 -51.1028 -51.0859 -51.0568 -49.0307 -49.0193 -49.0119
    -4.0277  -3.9393   5.3326   6.1532   6.5349   6.9455   7.8233   7.9802
     8.2954   8.9209   9.1598  10.2310  10.6244  10.6526  12.3419  12.4061
    17.9316  18.0783  20.0638  20.6213  24.7982

     occupation numbers 
     1.0000   1.0000   1.0000   1.0000   1.0000   1.0000   1.0000   1.0000
     1.0000   1.0000   1.0000   1.0000   1.0000   1.0000   1.0000   1.0000
     1.0000   1.0000   1.0000   1.0000   1.0000   1.0000   1.0000   1.0000
     0.0000   0.0000   0.0000   0.0000   0.0000

          k = 0.1250 0.1250 0.1250 (  2093 PWs)   bands (ev):

   -90.7071 -88.5766 -51.0801 -51.0801 -51.0600 -49.0227 -49.0056 -49.0056
    -5.2677  -4.1982   5.7874   6.0528   6.0528   7.5235   7.5235   7.6497
     8.5631   8.5631  10.1389  11.2193  11.6198  11.6198  12.7604  12.7604
    17.2578  17.6672  17.6672  19.9727  25.0767

     occupation numbers 
     1.0000   1.0000   1.0000   1.0000   1.0000   1.0000   1.0000   1.0000
     1.0000   1.0000   1.0000   1.0000   1.0000   1.0000   1.0000   1.0000
     1.0000   1.0000   1.0000   1.0000   1.0000   1.0000   1.0000   1.0000
     0.0000   0.0000   0.0000   0.0000   0.0000

          k = 0.5000 0.5000-1.0000 (  2127 PWs)   bands (ev):

   -90.7061 -88.5756 -51.0915 -51.0830 -51.0584 -49.0210 -49.0182 -49.0088
    -4.6516  -4.1140   5.6664   6.1966   6.8943   6.9509   7.6151   7.6258
     8.2223   8.7363   9.6499  10.6664  11.2423  11.7019  11.7669  12.0638
    17.0230  17.8380  20.2738  21.8488  25.4647

     occupation numbers 
     1.0000   1.0000   1.0000   1.0000   1.0000   1.0000   1.0000   1.0000
     1.0000   1.0000   1.0000   1.0000   1.0000   1.0000   1.0000   1.0000
     1.0000   1.0000   1.0000   1.0000   1.0000   1.0000   1.0000   1.0000
     0.0000   0.0000   0.0000   0.0000   0.0000

          k = 0.3750 0.3750-0.6250 (  2113 PWs)   bands (ev):

   -90.7052 -88.5746 -51.1028 -51.0859 -51.0568 -49.0307 -49.0193 -49.0119
    -4.0752  -3.8937   5.6276   6.1763   6.3657   6.9752   7.7318   7.9939
     8.1622   9.0124   9.2341  10.1336  10.5710  10.7483  12.0965  12.3871
    17.7987  17.8168  21.0079  21.2389  24.5380

     occupation numbers 
     1.0000   1.0000   1.0000   1.0000   1.0000   1.0000   1.0000   1.0000
     1.0000   1.0000   1.0000   1.0000   1.0000   1.0000   1.0000   1.0000
     1.0000   1.0000   1.0000   1.0000   1.0000   1.0000   1.0000   1.0000
     0.0000   0.0000   0.0000   0.0000   0.0000

          k = 0.8750-0.6250-0.6250 (  2110 PWs)   bands (ev):

   -90.7061 -88.5756 -51.0915 -51.0830 -51.0584 -49.0210 -49.0182 -49.0088
    -4.4841  -4.2985   5.8156   6.1974   6.7147   6.8791   7.6250   7.7666
     8.2526   8.7699   9.6122  10.2540  11.2505  11.3752  12.0713  12.5400
    17.2933  17.7611  20.0444  21.3424  25.6567

     occupation numbers 
     1.0000   1.0000   1.0000   1.0000   1.0000   1.0000   1.0000   1.0000
     1.0000   1.0000   1.0000   1.0000   1.0000   1.0000   1.0000   1.0000
     1.0000   1.0000   1.0000   1.0000   1.0000   1.0000   1.0000   1.0000
     0.0000   0.0000   0.0000   0.0000   0.0000

          k = 0.7500-0.7500-0.2500 (  2106 PWs)   bands (ev):

   -90.7052 -88.5746 -51.0986 -51.0902 -51.0568 -49.0260 -49.0193 -49.0167
    -4.0323  -3.9406   6.1398   6.1752   6.3837   6.6384   7.2766   8.2031
     8.2697   8.8015   9.8001  10.0680  10.3564  10.6557  11.9988  12.2613
    17.6622  17.6858  21.7861  22.4717  24.1966

     occupation numbers 
     1.0000   1.0000   1.0000   1.0000   1.0000   1.0000   1.0000   1.0000
     1.0000   1.0000   1.0000   1.0000   1.0000   1.0000   1.0000   1.0000
     1.0000   1.0000   1.0000   1.0000   1.0000   1.0000   1.0000   1.0000
     0.0000   0.0000   0.0000   0.0000   0.0000

          k =-0.2500-0.2500-0.2500 (  2106 PWs)   bands (ev):

   -90.7071 -88.5766 -51.0801 -51.0801 -51.0599 -49.0228 -49.0056 -49.0056
    -4.8585  -4.6798   6.0867   6.0867   6.4985   7.2667   7.5675   7.5675
     8.4673   8.4673  10.2104  10.4032  11.4311  11.4311  13.0310  13.0310
    17.5671  17.5671  18.9072  19.0631  26.2933

     occupation numbers 
     1.0000   1.0000   1.0000   1.0000   1.0000   1.0000   1.0000   1.0000
     1.0000   1.0000   1.0000   1.0000   1.0000   1.0000   1.0000   1.0000
     1.0000   1.0000   1.0000   1.0000   1.0000   1.0000   1.0000   1.0000
     0.0000   0.0000   0.0000   0.0000   0.0000

     the Fermi energy is    15.5196 ev

!    total energy              =    -750.81890857 Ry
     estimated scf accuracy    <          3.0E-14 Ry
     smearing contrib. (-TS)   =      -0.00000000 Ry
     internal energy E=F+TS    =    -750.81890857 Ry

     The total energy is F=E-TS. E is the sum of the following terms:
     one-electron contribution =    -431.71788880 Ry
     hartree contribution      =     245.26325464 Ry
     xc contribution           =     -85.95251549 Ry
     ewald contribution        =    -478.56309975 Ry
     Hubbard energy            =       0.15134083 Ry

     total magnetization       =     0.00 Bohr mag/cell
     absolute magnetization    =     3.69 Bohr mag/cell

     convergence has been achieved in  28 iterations

     Forces acting on atoms (cartesian axes, Ry/au):

     atom    1 type  1   force =    -0.00567421   -0.00567421   -0.00567421
     atom    2 type  2   force =    -0.00724990   -0.00724990   -0.00724990
     atom    3 type  3   force =    -0.00918122   -0.00918122   -0.00918122
     atom    4 type  3   force =     0.02210533    0.02210533    0.02210533
     The non-local contrib.  to forces
     atom    1 type  1   force =    -0.03245621   -0.03245621   -0.03245621
     atom    2 type  2   force =    -0.02980219   -0.02980219   -0.02980219
     atom    3 type  3   force =    -0.04019937   -0.04019937   -0.04019937
     atom    4 type  3   force =     0.02021554    0.02021554    0.02021554
     The ionic contribution  to forces
     atom    1 type  1   force =    -0.33152417   -0.33152417   -0.33152417
     atom    2 type  2   force =    -0.24834258   -0.24834258   -0.24834258
     atom    3 type  3   force =    -0.26468470   -0.26468470   -0.26468470
     atom    4 type  3   force =     0.84455146    0.84455146    0.84455146
     The local contribution  to forces
     atom    1 type  1   force =     0.36084858    0.36084858    0.36084858
     atom    2 type  2   force =     0.27317111    0.27317111    0.27317111
     atom    3 type  3   force =     0.29562724    0.29562724    0.29562724
     atom    4 type  3   force =    -0.84273915   -0.84273915   -0.84273915
     The core correction contribution to forces
     atom    1 type  1   force =     0.00006631    0.00006631    0.00006631
     atom    2 type  2   force =     0.00003503    0.00003503    0.00003503
     atom    3 type  3   force =     0.00032815    0.00032815    0.00032815
     atom    4 type  3   force =    -0.00030615   -0.00030615   -0.00030615
     The Hubbard contrib.    to forces
     atom    1 type  1   force =    -0.00260906   -0.00260906   -0.00260906
     atom    2 type  2   force =    -0.00231138   -0.00231138   -0.00231138
     atom    3 type  3   force =    -0.00025236   -0.00025236   -0.00025236
     atom    4 type  3   force =     0.00038368    0.00038368    0.00038368
     The SCF correction term to forces
     atom    1 type  1   force =     0.00000035    0.00000035    0.00000035
     atom    2 type  2   force =     0.00000012    0.00000012    0.00000012
     atom    3 type  3   force =    -0.00000016   -0.00000016   -0.00000016
     atom    4 type  3   force =    -0.00000004   -0.00000004   -0.00000004

     Total force =     0.044420     Total SCF correction =     0.000001


     Computing stress (Cartesian axis) and pressure

          total   stress  (Ry/bohr**3)                   (kbar)     P=      159.11
   0.00108160  -0.00001840  -0.00001840          159.11       -2.71       -2.71
  -0.00001840   0.00108160  -0.00001840           -2.71      159.11       -2.71
  -0.00001840  -0.00001840   0.00108160           -2.71       -2.71      159.11

     kinetic stress (kbar)  48818.98      2.31      2.31
                                2.31  48818.98      2.31
                                2.31      2.31  48818.98

     local   stress (kbar)  -4630.39    154.92    154.92
                              154.92  -4630.39    154.92
                              154.92    154.92  -4630.39

     nonloc. stress (kbar)  21950.89      1.25      1.25
                                1.25  21950.89      1.25
                                1.25      1.25  21950.89

     hartree stress (kbar)  49157.55    -62.81    -62.81
                              -62.81  49157.55    -62.81
                              -62.81    -62.81  49157.55

     exc-cor stress (kbar) -13846.51     -0.07     -0.07
                               -0.07 -13846.51     -0.07
                               -0.07     -0.07 -13846.51

     corecor stress (kbar)  -2494.15     -0.01     -0.01
                               -0.01  -2494.15     -0.01
                               -0.01     -0.01  -2494.15

     ewald   stress (kbar) -95917.30    -97.90    -97.90
                              -97.90 -95917.30    -97.90
                              -97.90    -97.90 -95917.30

     hubbard stress (kbar)  -2879.96     -0.40     -0.40
                               -0.40  -2879.96     -0.40
                               -0.40     -0.40  -2879.96

     DFT-D   stress (kbar)      0.00      0.00      0.00
                                0.00      0.00      0.00
                                0.00      0.00      0.00

     XDM     stress (kbar)      0.00      0.00      0.00
                                0.00      0.00      0.00
                                0.00      0.00      0.00

     dft-nl  stress (kbar)      0.00      0.00      0.00
                                0.00      0.00      0.00
                                0.00      0.00      0.00

     TS-vdW  stress (kbar)      0.00      0.00      0.00
                                0.00      0.00      0.00
                                0.00      0.00      0.00

     MBD     stress (kbar)      0.00      0.00      0.00
                                0.00      0.00      0.00
                                0.00      0.00      0.00



     Writing all to output data dir ./NiO.save/

     init_run     :     19.68s CPU      3.52s WALL (       1 calls)
     electrons    :   3572.06s CPU    288.73s WALL (       1 calls)
     forces       :    156.10s CPU     12.01s WALL (       1 calls)
     stress       :    380.59s CPU     47.18s WALL (       1 calls)

     Called by init_run:
     wfcinit      :     14.02s CPU      1.09s WALL (       1 calls)
     wfcinit:atom :      0.03s CPU      0.02s WALL (      26 calls)
     wfcinit:wfcr :     11.75s CPU      0.78s WALL (      26 calls)
     potinit      :      2.54s CPU      0.70s WALL (       1 calls)
     hinit0       :      1.95s CPU      1.23s WALL (       1 calls)

     Called by electrons:
     c_bands      :   3197.20s CPU    235.26s WALL (      28 calls)
     sum_band     :    304.91s CPU     23.53s WALL (      28 calls)
     v_of_rho     :     38.81s CPU     17.18s WALL (      29 calls)
     v_h          :      2.15s CPU      0.17s WALL (      29 calls)
     v_xc         :     39.06s CPU     18.15s WALL (      31 calls)
     newd         :     25.52s CPU     12.50s WALL (      29 calls)
     mix_rho      :      6.38s CPU      0.68s WALL (      28 calls)

     Called by c_bands:
     init_us_2    :     32.87s CPU      1.97s WALL (    1612 calls)
     init_us_2:cp :     32.63s CPU      1.97s WALL (    1612 calls)
     cegterg      :   3168.17s CPU    232.77s WALL (     728 calls)

     Called by sum_band:
     sum_band:wei :      0.00s CPU      0.00s WALL (      28 calls)
     sum_band:loo :    108.44s CPU      6.95s WALL (      28 calls)
     sum_band:buf :      3.38s CPU      0.20s WALL (     728 calls)
     sum_band:ini :     18.72s CPU      0.87s WALL (     728 calls)
     sum_band:cal :      3.18s CPU      0.22s WALL (     728 calls)
     sum_band:bec :      0.76s CPU      0.05s WALL (     728 calls)
     addusdens    :    176.63s CPU     15.02s WALL (      28 calls)
     addusd:skk   :      0.23s CPU      0.04s WALL (      84 calls)
     addusd:dgemm :      9.62s CPU      2.60s WALL (     168 calls)
     addusd:qvan2 :    159.45s CPU     10.46s WALL (     168 calls)

     Called by *egterg:
     cdiaghg      :     56.69s CPU      4.09s WALL (    2827 calls)
     cegterg:over :     73.20s CPU      3.75s WALL (    2099 calls)
     cegterg:upda :    121.13s CPU      7.91s WALL (    2099 calls)
     cegterg:last :    148.60s CPU     10.04s WALL (    1370 calls)
     h_psi        :   2540.94s CPU    190.80s WALL (    2853 calls)
     s_psi        :     30.49s CPU      2.19s WALL (    2983 calls)
     g_psi        :     32.44s CPU      2.29s WALL (    2099 calls)

     Called by h_psi:
     h_psi:calbec :     32.42s CPU      2.54s WALL (    2853 calls)
     vloc_psi     :   2072.15s CPU    153.00s WALL (    2853 calls)
     add_vuspsi   :     32.97s CPU      2.22s WALL (    2853 calls)
     vhpsi        :    312.41s CPU     25.12s WALL (    2853 calls)

     General routines
     calbec       :    200.48s CPU     16.46s WALL (   17692 calls)
     fft          :     11.58s CPU      1.30s WALL (     763 calls)
     ffts         :      0.60s CPU      0.05s WALL (     114 calls)
     fftw         :   1603.58s CPU    118.81s WALL (  123524 calls)
     interpolate  :      2.31s CPU      0.26s WALL (      58 calls)
     davcio       :      0.08s CPU      0.02s WALL (     132 calls)

     Parallel routines

     Hubbard U routines
     new_nsg      :     14.37s CPU      1.00s WALL (      28 calls)
     alloc_neigh  :      0.00s CPU      0.00s WALL (       1 calls)
     vhpsi        :    312.41s CPU     25.12s WALL (    2853 calls)
     force_hub    :    151.26s CPU     10.75s WALL (       1 calls)
     stres_hub    :    208.88s CPU     22.87s WALL (       1 calls)

     PWSCF        :      1h 8m CPU   5m51.81s WALL


   This run was terminated on:  13:19: 3  31May2022            

=------------------------------------------------------------------------------=
   JOB DONE.
=------------------------------------------------------------------------------=
