SIRIUS 7.1.0, git hash: 4823fd1d9f41de479322800a867d45a1e8a990bf
Warning! Compiled in 'debug' mode with assert statements enabled!

     Program PWSCF v.6.7GPU starts on 12Feb2021 at 16: 6: 5 

     This program is part of the open-source Quantum ESPRESSO suite
     for quantum simulation of materials; please cite
         "P. Giannozzi et al., J. Phys.:Condens. Matter 21 395502 (2009);
         "P. Giannozzi et al., J. Phys.:Condens. Matter 29 465901 (2017);
         "P. Giannozzi et al., J. Chem. Phys. 152 154105 (2020);
          URL http://www.quantum-espresso.org", 
     in publications or presentations arising from this work. More details at
     http://www.quantum-espresso.org/quote

     Parallel version (MPI & OpenMP), running on       8 processor cores
     Number of MPI processes:                 1
     Threads/MPI process:                     8

     MPI processes distributed on     1 nodes
     Reading input from pw.in
Warning: card &CELL ignored
Warning: card  CELL_DYNAMICS='BFGS', ignored
Warning: card / ignored
     Message from routine read_cards :
     DEPRECATED: no units specified in CELL_PARAMETERS card

     Current dimensions of program PWSCF are:
     Max number of different atomic species (ntypx) = 10
     Max number of k-points (npk) =  40000
     Max angular momentum in pseudopotentials (lmaxx) =  3
     Message from routine setup:
     using ibrav=0 with symmetry is DISCOURAGED, use correct ibrav instead

     Subspace diagonalization in iterative solution of the eigenvalue problem:
     a serial algorithm will be used


     G-vector sticks info
     --------------------
     sticks:   dense  smooth     PW     G-vecs:    dense   smooth      PW
     Sum        1639     253     85                43599     2565     459

     Using Slab Decomposition



     bravais-lattice index     =            0
     lattice parameter (alat)  =       7.6050  a.u.
     unit-cell volume          =     113.5729 (a.u.)^3
     number of atoms/cell      =            2
     number of atomic types    =            2
     number of electrons       =         8.00
     number of Kohn-Sham states=            8
     kinetic-energy cutoff     =      30.0000  Ry
     charge density cutoff     =     800.0000  Ry
     scf convergence threshold =      1.0E-11
     mixing beta               =       0.7000
     number of iterations used =            8  plain     mixing
     Exchange-correlation= LDA
                           (   1   1   0   0   0   0   0)

     celldm(1)=   7.605017  celldm(2)=   0.000000  celldm(3)=   0.000000
     celldm(4)=   0.000000  celldm(5)=   0.000000  celldm(6)=   0.000000

     crystal axes: (cart. coord. in units of alat)
               a(1) = (  -0.000000   0.505415   0.505415 )  
               a(2) = (   0.505415  -0.000000   0.505415 )  
               a(3) = (   0.505415   0.505415  -0.000000 )  

     reciprocal axes: (cart. coord. in units 2 pi/alat)
               b(1) = ( -0.989286  0.989286  0.989286 )  
               b(2) = (  0.989286 -0.989286  0.989286 )  
               b(3) = (  0.989286  0.989286 -0.989286 )  


     PseudoPot. # 1 for Li read from file:
     ./Li.pz-n-nc.UPF
     MD5 check sum: 76203b812b0f74539eb9c178921330f3
     Pseudo is Norm-conserving + core correction, Zval =  1.0
     Generated using "atomic" code by A. Dal Corso  v.5.0.99 svn rev. 10869
     Using radial grid of 1017 points,  1 beta functions with: 
                l(1) =   1

     PseudoPot. # 2 for F  read from file:
     ./F.pz-n-nc.UPF
     MD5 check sum: 70eb54fd00495b61d043659218540ce2
     Pseudo is Norm-conserving, Zval =  7.0
     Generated using "atomic" code by A. Dal Corso  v.5.0.99 svn rev. 10869
     Using radial grid of 1105 points,  1 beta functions with: 
                l(1) =   1

     atomic species   valence    mass     pseudopotential
        Li             1.00     6.94100     Li( 1.00)
        F              7.00    18.99840     F ( 1.00)

      6 Sym. Ops. (no inversion) found


                                    s                        frac. trans.

      isym =  1     identity                                     

 cryst.   s( 1) = (     1          0          0      )
                  (     0          1          0      )
                  (     0          0          1      )

 cart.    s( 1) = (  1.0000000  0.0000000 -0.0000000 )
                  (  0.0000000  1.0000000 -0.0000000 )
                  (  0.0000000 -0.0000000  1.0000000 )


      isym =  2     120 deg rotation - cart. axis [-1,-1,-1]     

 cryst.   s( 2) = (     0          0          1      )
                  (     1          0          0      )
                  (     0          1          0      )

 cart.    s( 2) = ( -0.0000000  1.0000000  0.0000000 )
                  ( -0.0000000  0.0000000  1.0000000 )
                  (  1.0000000  0.0000000 -0.0000000 )


      isym =  3     120 deg rotation - cart. axis [1,1,1]        

 cryst.   s( 3) = (     0          1          0      )
                  (     0          0          1      )
                  (     1          0          0      )

 cart.    s( 3) = (  0.0000000 -0.0000000  1.0000000 )
                  (  1.0000000 -0.0000000  0.0000000 )
                  ( -0.0000000  1.0000000  0.0000000 )


      isym =  4     inv. 180 deg rotation - cart. axis [1,-1,0]  

 cryst.   s( 4) = (     0          1          0      )
                  (     1          0          0      )
                  (     0          0          1      )

 cart.    s( 4) = (  0.0000000  1.0000000 -0.0000000 )
                  (  1.0000000  0.0000000 -0.0000000 )
                  ( -0.0000000  0.0000000  1.0000000 )


      isym =  5     inv. 180 deg rotation - cart. axis [-1,0,1]  

 cryst.   s( 5) = (     0          0          1      )
                  (     0          1          0      )
                  (     1          0          0      )

 cart.    s( 5) = ( -0.0000000  0.0000000  1.0000000 )
                  ( -0.0000000  1.0000000  0.0000000 )
                  (  1.0000000 -0.0000000  0.0000000 )


      isym =  6     inv. 180 deg rotation - cart. axis [0,1,-1]  

 cryst.   s( 6) = (     1          0          0      )
                  (     0          0          1      )
                  (     0          1          0      )

 cart.    s( 6) = (  1.0000000 -0.0000000  0.0000000 )
                  (  0.0000000 -0.0000000  1.0000000 )
                  (  0.0000000  1.0000000 -0.0000000 )


   Cartesian axes

     site n.     atom                  positions (alat units)
         1           Li  tau(   1) = (   0.0000000   0.0000000   0.0000000  )
         2           F   tau(   2) = (   0.5100000   0.5100000   0.5100000  )

   Crystallographic axes

     site n.     atom                  positions (cryst. coord.)
         1           Li  tau(   1) = (  0.0000000  0.0000000  0.0000000  )
         2           F   tau(   2) = (  0.5045360  0.5045360  0.5045360  )

     number of k points=     6  Gaussian smearing, width (Ry)=  0.0200
                       cart. coord. in units 2pi/alat
        k(    1) = (   0.0000000   0.0000000   0.0000000), wk =   0.0740741
        k(    2) = (   0.3297621   0.3297621  -0.3297621), wk =   0.4444444
        k(    3) = (   0.6595242   0.0000000  -0.0000000), wk =   0.4444444
        k(    4) = (  -0.0000000  -0.6595242   0.6595242), wk =   0.4444444
        k(    5) = (   0.3297621   0.3297621   0.3297621), wk =   0.1481481
        k(    6) = (   0.6595242  -0.0000000   0.6595242), wk =   0.4444444

                       cryst. coord.
        k(    1) = (   0.0000000   0.0000000   0.0000000), wk =   0.0740741
        k(    2) = (  -0.0000000  -0.0000000   0.3333333), wk =   0.4444444
        k(    3) = (  -0.0000000   0.3333333   0.3333333), wk =   0.4444444
        k(    4) = (   0.0000000   0.3333333  -0.3333333), wk =   0.4444444
        k(    5) = (   0.3333333   0.3333333   0.3333333), wk =   0.1481481
        k(    6) = (   0.3333333   0.6666667   0.3333333), wk =   0.4444444

     Dense  grid:    43599 G-vectors     FFT dimensions: (  50,  50,  50)

     Smooth grid:     2565 G-vectors     FFT dimensions: (  20,  20,  20)

     Dynamical RAM for                 wfc:       0.04 MB

     Dynamical RAM for     wfc (w. buffer):       0.27 MB

     Dynamical RAM for           str. fact:       1.33 MB

     Dynamical RAM for           local pot:       0.00 MB

     Dynamical RAM for          nlocal pot:       0.03 MB

     Dynamical RAM for                qrad:       0.13 MB

     Dynamical RAM for          rho,v,vnew:       4.86 MB

     Dynamical RAM for               rhoin:       1.62 MB

     Dynamical RAM for            rho*nmix:      10.64 MB

     Dynamical RAM for           G-vectors:       2.51 MB

     Dynamical RAM for          h,s,v(r/c):       0.01 MB

     Dynamical RAM for          <psi|beta>:       0.00 MB

     Dynamical RAM for                 psi:       0.08 MB

     Dynamical RAM for                hpsi:       0.08 MB

     Dynamical RAM for      wfcinit/wfcrot:       0.08 MB

     Estimated static dynamical RAM per process >      28.16 MB

     Estimated max dynamical RAM per process >      28.32 MB

     Initial potential from superposition of free atoms

     starting charge    7.99533, renormalised to    8.00000
     Starting wfcs are    8 randomized atomic wfcs

     total cpu time spent up to now is        0.1 secs

     Self-consistent Calculation

     iteration #  1     ecut=    30.00 Ry     beta= 0.70
     Davidson diagonalization with overlap
     ethr =  1.00E-02,  avg # of iterations =  3.0

     total cpu time spent up to now is        0.2 secs

     total energy              =     -46.87310760 Ry
     Harris-Foulkes estimate   =     -47.18173431 Ry
     estimated scf accuracy    <       0.44867954 Ry
 
     Band energy sum           =      -2.54692749 Ry

     iteration #  2     ecut=    30.00 Ry     beta= 0.70
     Davidson diagonalization with overlap
     ethr =  5.61E-03,  avg # of iterations =  2.0

     total cpu time spent up to now is        0.3 secs

     total energy              =     -46.97954211 Ry
     Harris-Foulkes estimate   =     -47.06876337 Ry
     estimated scf accuracy    <       0.16217929 Ry
 
     Band energy sum           =      -4.98776782 Ry

     iteration #  3     ecut=    30.00 Ry     beta= 0.70
     Davidson diagonalization with overlap
     ethr =  2.03E-03,  avg # of iterations =  1.3

     total cpu time spent up to now is        0.4 secs

     total energy              =     -47.01103252 Ry
     Harris-Foulkes estimate   =     -47.01189049 Ry
     estimated scf accuracy    <       0.00253396 Ry
 
     Band energy sum           =      -3.71312557 Ry

     iteration #  4     ecut=    30.00 Ry     beta= 0.70
     Davidson diagonalization with overlap
     ethr =  3.17E-05,  avg # of iterations =  2.7

     total cpu time spent up to now is        0.5 secs

     total energy              =     -47.01112503 Ry
     Harris-Foulkes estimate   =     -47.01114110 Ry
     estimated scf accuracy    <       0.00003143 Ry
 
     Band energy sum           =      -3.69701541 Ry

     iteration #  5     ecut=    30.00 Ry     beta= 0.70
     Davidson diagonalization with overlap
     ethr =  3.93E-07,  avg # of iterations =  2.5

     total cpu time spent up to now is        0.6 secs

     total energy              =     -47.01113479 Ry
     Harris-Foulkes estimate   =     -47.01113511 Ry
     estimated scf accuracy    <       0.00000090 Ry
 
     Band energy sum           =      -3.71221333 Ry

     iteration #  6     ecut=    30.00 Ry     beta= 0.70
     Davidson diagonalization with overlap
     ethr =  1.12E-08,  avg # of iterations =  1.0

     total cpu time spent up to now is        0.6 secs

     total energy              =     -47.01113494 Ry
     Harris-Foulkes estimate   =     -47.01113492 Ry
     estimated scf accuracy    <          2.7E-09 Ry
 
     Band energy sum           =      -3.71043679 Ry

     iteration #  7     ecut=    30.00 Ry     beta= 0.70
     Davidson diagonalization with overlap
     ethr =  3.39E-11,  avg # of iterations =  2.5

     total cpu time spent up to now is        0.7 secs

     total energy              =     -47.01113494 Ry
     Harris-Foulkes estimate   =     -47.01113494 Ry
     estimated scf accuracy    <          6.2E-11 Ry
 
     Band energy sum           =      -3.71029897 Ry

     iteration #  8     ecut=    30.00 Ry     beta= 0.70
     Davidson diagonalization with overlap
     ethr =  7.72E-13,  avg # of iterations =  1.8

     total cpu time spent up to now is        0.8 secs

     End of self-consistent calculation

          k = 0.0000 0.0000 0.0000 (   331 PWs)   bands (ev):

   -24.4704   0.6822   0.6822   0.6842   7.2582  23.5386  23.5824  23.5824

     occupation numbers 
     1.0000   1.0000   1.0000   1.0000   0.0000   0.0000   0.0000   0.0000

          k = 0.3298 0.3298-0.3298 (   308 PWs)   bands (ev):

   -24.2217  -1.1841   1.1126   1.1138   9.4085  17.8861  19.0378  19.0457

     occupation numbers 
     1.0000   1.0000   1.0000   1.0000   0.0000   0.0000   0.0000   0.0000

          k = 0.6595 0.0000-0.0000 (   323 PWs)   bands (ev):

   -24.1072  -1.8459   0.0253   0.0276  12.5247  17.7048  17.8568  20.4843

     occupation numbers 
     1.0000   1.0000   1.0000   1.0000   0.0000   0.0000   0.0000   0.0000

          k =-0.0000-0.6595 0.6595 (   323 PWs)   bands (ev):

   -24.0210  -1.7022  -1.1432   0.3464  13.0584  15.6522  18.6062  19.2259

     occupation numbers 
     1.0000   1.0000   1.0000   1.0000   0.0000   0.0000   0.0000   0.0000

          k = 0.3298 0.3298 0.3298 (   308 PWs)   bands (ev):

   -24.2215  -1.1847   1.1131   1.1131   9.4114  17.8885  19.0330  19.0330

     occupation numbers 
     1.0000   1.0000   1.0000   1.0000   0.0000   0.0000   0.0000   0.0000

          k = 0.6595-0.0000 0.6595 (   323 PWs)   bands (ev):

   -24.0209  -1.7023  -1.1422   0.3451  13.0537  15.6525  18.6851  19.1470

     occupation numbers 
     1.0000   1.0000   1.0000   1.0000   0.0000   0.0000   0.0000   0.0000

     the Fermi energy is     2.8995 ev

!    total energy              =     -47.01113494 Ry
     Harris-Foulkes estimate   =     -47.01113494 Ry
     estimated scf accuracy    <          4.5E-12 Ry
     smearing contrib. (-TS)   =      -0.00000000 Ry
     internal energy E=F+TS    =     -47.01113494 Ry

     The total energy is F=E-TS. E is the sum of the following terms:
     one-electron contribution =     -20.13210213 Ry
     hartree contribution      =      14.21357814 Ry
     xc contribution           =      -9.28824815 Ry
     ewald contribution        =     -31.80436279 Ry
 
     Band energy sum           =      -3.71031864 Ry

     convergence has been achieved in   8 iterations

     evp_work_count     :        616
     num_loc_op_applied :        979

     Forces acting on atoms (cartesian axes, Ry/au):

     atom    1 type  1   force =     0.00362941    0.00362941    0.00362941
     atom    2 type  2   force =    -0.00362941   -0.00362941   -0.00362941
     The non-local contrib.  to forces
     atom    1 type  1   force =    -0.00559268   -0.00559268   -0.00559268
     atom    2 type  2   force =     0.00476792    0.00476792    0.00476792
     The ionic contribution  to forces
     atom    1 type  1   force =     0.01798616    0.01798616    0.01798616
     atom    2 type  2   force =    -0.01798616   -0.01798616   -0.01798616
     The local contribution  to forces
     atom    1 type  1   force =    -0.00809255   -0.00809255   -0.00809255
     atom    2 type  2   force =     0.00958953    0.00958953    0.00958953
     The core correction contribution to forces
     atom    1 type  1   force =    -0.00067143   -0.00067143   -0.00067143
     atom    2 type  2   force =     0.00000000    0.00000000    0.00000000
     The Hubbard contrib.    to forces
     atom    1 type  1   force =     0.00000000    0.00000000    0.00000000
     atom    2 type  2   force =     0.00000000    0.00000000    0.00000000
     The SCF correction term to forces
     atom    1 type  1   force =    -0.00000000   -0.00000000   -0.00000000
     atom    2 type  2   force =    -0.00000062   -0.00000062   -0.00000062

     Total force =     0.008890     Total SCF correction =     0.000001


     Computing stress (Cartesian axis) and pressure

          total   stress  (Ry/bohr**3)                   (kbar)     P=    -3399.61
  -0.02311011  -0.00000206  -0.00000206        -3399.61       -0.30       -0.30
  -0.00000206  -0.02311011  -0.00000206           -0.30    -3399.61       -0.30
  -0.00000206  -0.00000206  -0.02311011           -0.30       -0.30    -3399.61

     kinetic stress (kbar)  24355.14      0.17      0.17
                                0.17  24355.14      0.17
                                0.17      0.17  24355.14

     local   stress (kbar)  -2284.25      1.74      1.74
                                1.74  -2284.25      1.74
                                1.74      1.74  -2284.25

     nonloc. stress (kbar) -14145.08      0.23      0.23
                                0.23 -14145.08      0.23
                                0.23      0.23 -14145.08

     hartree stress (kbar)   6136.71     -0.08     -0.08
                               -0.08   6136.71     -0.08
                               -0.08     -0.08   6136.71

     exc-cor stress (kbar)  -3519.37      0.00      0.00
                                0.00  -3519.37      0.00
                                0.00      0.00  -3519.37

     corecor stress (kbar)   -211.24      0.03      0.03
                                0.03   -211.24      0.03
                                0.03      0.03   -211.24

     ewald   stress (kbar) -13731.52     -2.39     -2.39
                               -2.39 -13731.52     -2.39
                               -2.39     -2.39 -13731.52

     hubbard stress (kbar)      0.00      0.00      0.00
                                0.00      0.00      0.00
                                0.00      0.00      0.00

     DFT-D   stress (kbar)      0.00      0.00      0.00
                                0.00      0.00      0.00
                                0.00      0.00      0.00

     XDM     stress (kbar)      0.00      0.00      0.00
                                0.00      0.00      0.00
                                0.00      0.00      0.00

     dft-nl  stress (kbar)      0.00      0.00      0.00
                                0.00      0.00      0.00
                                0.00      0.00      0.00

     TS-vdW  stress (kbar)      0.00      0.00      0.00
                                0.00      0.00      0.00
                                0.00      0.00      0.00



     Writing output data file ./LiF_.save/

     init_run     :      0.12s CPU      0.11s WALL (       1 calls)
     electrons    :      0.61s CPU      0.65s WALL (       1 calls)
     forces       :      0.05s CPU      0.03s WALL (       1 calls)
     stress       :      0.13s CPU      0.10s WALL (       1 calls)

     Called by init_run:
     wfcinit      :      0.02s CPU      0.02s WALL (       1 calls)
     wfcinit:atom :      0.00s CPU      0.00s WALL (       6 calls)
     wfcinit:wfcr :      0.02s CPU      0.02s WALL (       6 calls)
     potinit      :      0.03s CPU      0.01s WALL (       1 calls)
     hinit0       :      0.06s CPU      0.05s WALL (       1 calls)

     Called by electrons:
     c_bands      :      0.33s CPU      0.37s WALL (       8 calls)
     sum_band     :      0.11s CPU      0.13s WALL (       8 calls)
     v_of_rho     :      0.11s CPU      0.07s WALL (       9 calls)
     v_h          :      0.03s CPU      0.03s WALL (       9 calls)
     v_xc         :      0.09s CPU      0.05s WALL (      11 calls)
     mix_rho      :      0.04s CPU      0.04s WALL (       8 calls)

     Called by c_bands:
     init_us_2    :      0.01s CPU      0.01s WALL (     114 calls)
     cegterg      :      0.32s CPU      0.36s WALL (      48 calls)

     Called by sum_band:
     sum_band:wei :      0.00s CPU      0.00s WALL (       8 calls)
     sum_band:loo :      0.07s CPU      0.09s WALL (       8 calls)
     sum_band:buf :      0.00s CPU      0.00s WALL (      48 calls)
     sum_band:ini :      0.00s CPU      0.00s WALL (      48 calls)

     Called by *egterg:
     cdiaghg      :      0.01s CPU      0.01s WALL (     149 calls)
     cegterg:over :      0.01s CPU      0.01s WALL (     101 calls)
     cegterg:upda :      0.01s CPU      0.01s WALL (     101 calls)
     cegterg:last :      0.01s CPU      0.01s WALL (      88 calls)
     h_psi        :      0.29s CPU      0.33s WALL (     155 calls)
     g_psi        :      0.00s CPU      0.00s WALL (     101 calls)

     Called by h_psi:
     h_psi:calbec :      0.00s CPU      0.00s WALL (     155 calls)
     vloc_psi     :      0.28s CPU      0.32s WALL (     155 calls)
     add_vuspsi   :      0.01s CPU      0.00s WALL (     155 calls)

     General routines
     calbec       :      0.00s CPU      0.00s WALL (     185 calls)
     fft          :      0.11s CPU      0.11s WALL (      50 calls)
     ffts         :      0.00s CPU      0.00s WALL (      17 calls)
     fftw         :      0.21s CPU      0.20s WALL (    2342 calls)
     interpolate  :      0.02s CPU      0.02s WALL (       9 calls)

     Parallel routines

     PWSCF        :      0.94s CPU      0.93s WALL


   This run was terminated on:  16: 6: 5  12Feb2021            

=------------------------------------------------------------------------------=
   JOB DONE.
=------------------------------------------------------------------------------=
Note: The following floating-point exceptions are signalling: IEEE_UNDERFLOW_FLAG
