
     Program PWSCF v.6.6 starts on 30Sep2020 at 10: 6:59 

     This program is part of the open-source Quantum ESPRESSO suite
     for quantum simulation of materials; please cite
         "P. Giannozzi et al., J. Phys.:Condens. Matter 21 395502 (2009);
         "P. Giannozzi et al., J. Phys.:Condens. Matter 29 465901 (2017);
          URL http://www.quantum-espresso.org", 
     in publications or presentations arising from this work. More details at
     http://www.quantum-espresso.org/quote

     Parallel version (MPI & OpenMP), running on       8 processor cores
     Number of MPI processes:                 1
     Threads/MPI process:                     8

     MPI processes distributed on     1 nodes
     Reading input from pw.in
Warning: card &CELL ignored
Warning: card CELL_DYNAMICS='BFGS', ignored
Warning: card / ignored
     Message from routine read_cards :
     DEPRECATED: no units specified in CELL_PARAMETERS card

     Current dimensions of program PWSCF are:
     Max number of different atomic species (ntypx) = 10
     Max number of k-points (npk) =  40000
     Max angular momentum in pseudopotentials (lmaxx) =  3
     Message from routine cell_base_init:
     DEPRECATED: use true lattice parameter, not A to a.u. conversion factor

     Subspace diagonalization in iterative solution of the eigenvalue problem:
     a serial algorithm will be used

     Message from routine setup:
     using ibrav=0 with symmetry is DISCOURAGED, use correct ibrav instead

     G-vector sticks info
     --------------------
     sticks:   dense  smooth     PW     G-vecs:    dense   smooth      PW
     Sum        1369     379    121                33487     5029     941



     bravais-lattice index     =            0
     lattice parameter (alat)  =       1.0000  a.u.
     unit-cell volume          =      73.3928 (a.u.)^3
     number of atoms/cell      =            1
     number of atomic types    =            1
     number of electrons       =        18.00
     number of Kohn-Sham states=           13
     kinetic-energy cutoff     =      64.0000  Ry
     charge density cutoff     =     900.0000  Ry
     convergence threshold     =      1.0E-10
     mixing beta               =       0.5000
     number of iterations used =            8  plain     mixing
     Exchange-correlation= SLA  PW   PSX  PSC
                           (   1   4  10   8   0   0   0)

     celldm(1)=   1.000000  celldm(2)=   0.000000  celldm(3)=   0.000000
     celldm(4)=   0.000000  celldm(5)=   0.000000  celldm(6)=   0.000000

     crystal axes: (cart. coord. in units of alat)
               a(1) = (   0.000000   3.323083   3.323083 )  
               a(2) = (   3.323083   0.000000   3.323083 )  
               a(3) = (   3.323083   3.323083   0.000000 )  

     reciprocal axes: (cart. coord. in units 2 pi/alat)
               b(1) = ( -0.150463  0.150463  0.150463 )  
               b(2) = (  0.150463 -0.150463  0.150463 )  
               b(3) = (  0.150463  0.150463 -0.150463 )  


     PseudoPot. # 1 for Ni read from file:
     ./ni_pbesol_v1.4.uspp.F.UPF
     MD5 check sum: de937c0c8ae4b350e69c02b76d8a83cb
     Pseudo is Ultrasoft + core correction, Zval = 18.0
     Generated by new atomic code, or converted to UPF format
     Using radial grid of  865 points,  6 beta functions with: 
                l(1) =   0
                l(2) =   0
                l(3) =   1
                l(4) =   1
                l(5) =   2
                l(6) =   2
     Q(r) pseudized with 10 coefficients,  rinner =    0.980   0.980   0.980
                                                       0.980   0.980

     atomic species   valence    mass     pseudopotential
        Ni            18.00    58.69340     Ni( 1.00)

     Starting magnetic structure 
     atomic species   magnetization
        Ni           0.100


     Simplified LDA+U calculation (l_max = 2) with parameters (eV):
     atomic species    L          U    alpha       J0     beta
        Ni             2    10.0337   0.0000   0.0000   0.0000



     48 Sym. Ops., with inversion, found


                                    s                        frac. trans.

      isym =  1     identity                                     

 cryst.   s( 1) = (     1          0          0      )
                  (     0          1          0      )
                  (     0          0          1      )

 cart.    s( 1) = (  1.0000000  0.0000000  0.0000000 )
                  (  0.0000000  1.0000000  0.0000000 )
                  (  0.0000000  0.0000000  1.0000000 )


      isym =  2     180 deg rotation - cart. axis [0,0,1]        

 cryst.   s( 2) = (     0          1         -1      )
                  (     1          0         -1      )
                  (     0          0         -1      )

 cart.    s( 2) = ( -1.0000000  0.0000000  0.0000000 )
                  (  0.0000000 -1.0000000  0.0000000 )
                  (  0.0000000  0.0000000  1.0000000 )


      isym =  3     180 deg rotation - cart. axis [0,1,0]        

 cryst.   s( 3) = (     0         -1          1      )
                  (     0         -1          0      )
                  (     1         -1          0      )

 cart.    s( 3) = ( -1.0000000  0.0000000  0.0000000 )
                  (  0.0000000  1.0000000  0.0000000 )
                  (  0.0000000  0.0000000 -1.0000000 )


      isym =  4     180 deg rotation - cart. axis [1,0,0]        

 cryst.   s( 4) = (    -1          0          0      )
                  (    -1          0          1      )
                  (    -1          1          0      )

 cart.    s( 4) = (  1.0000000  0.0000000  0.0000000 )
                  (  0.0000000 -1.0000000  0.0000000 )
                  (  0.0000000  0.0000000 -1.0000000 )


      isym =  5     180 deg rotation - cart. axis [1,1,0]        

 cryst.   s( 5) = (    -1          0          1      )
                  (     0         -1          1      )
                  (     0          0          1      )

 cart.    s( 5) = (  0.0000000  1.0000000  0.0000000 )
                  (  1.0000000  0.0000000  0.0000000 )
                  (  0.0000000  0.0000000 -1.0000000 )


      isym =  6     180 deg rotation - cart. axis [1,-1,0]       

 cryst.   s( 6) = (     0         -1          0      )
                  (    -1          0          0      )
                  (     0          0         -1      )

 cart.    s( 6) = (  0.0000000 -1.0000000  0.0000000 )
                  ( -1.0000000  0.0000000  0.0000000 )
                  (  0.0000000  0.0000000 -1.0000000 )


      isym =  7      90 deg rotation - cart. axis [0,0,-1]       

 cryst.   s( 7) = (     0          1          0      )
                  (     0          1         -1      )
                  (    -1          1          0      )

 cart.    s( 7) = (  0.0000000  1.0000000  0.0000000 )
                  ( -1.0000000  0.0000000  0.0000000 )
                  (  0.0000000  0.0000000  1.0000000 )


      isym =  8      90 deg rotation - cart. axis [0,0,1]        

 cryst.   s( 8) = (     1          0         -1      )
                  (     1          0          0      )
                  (     1         -1          0      )

 cart.    s( 8) = (  0.0000000 -1.0000000  0.0000000 )
                  (  1.0000000  0.0000000  0.0000000 )
                  (  0.0000000  0.0000000  1.0000000 )


      isym =  9     180 deg rotation - cart. axis [1,0,1]        

 cryst.   s( 9) = (    -1          1          0      )
                  (     0          1          0      )
                  (     0          1         -1      )

 cart.    s( 9) = (  0.0000000  0.0000000  1.0000000 )
                  (  0.0000000 -1.0000000  0.0000000 )
                  (  1.0000000  0.0000000  0.0000000 )


      isym = 10     180 deg rotation - cart. axis [-1,0,1]       

 cryst.   s(10) = (     0          0         -1      )
                  (     0         -1          0      )
                  (    -1          0          0      )

 cart.    s(10) = (  0.0000000  0.0000000 -1.0000000 )
                  (  0.0000000 -1.0000000  0.0000000 )
                  ( -1.0000000  0.0000000  0.0000000 )


      isym = 11      90 deg rotation - cart. axis [0,1,0]        

 cryst.   s(11) = (     0          0          1      )
                  (    -1          0          1      )
                  (     0         -1          1      )

 cart.    s(11) = (  0.0000000  0.0000000  1.0000000 )
                  (  0.0000000  1.0000000  0.0000000 )
                  ( -1.0000000  0.0000000  0.0000000 )


      isym = 12      90 deg rotation - cart. axis [0,-1,0]       

 cryst.   s(12) = (     1         -1          0      )
                  (     1          0         -1      )
                  (     1          0          0      )

 cart.    s(12) = (  0.0000000  0.0000000 -1.0000000 )
                  (  0.0000000  1.0000000  0.0000000 )
                  (  1.0000000  0.0000000  0.0000000 )


      isym = 13     180 deg rotation - cart. axis [0,1,1]        

 cryst.   s(13) = (     1          0          0      )
                  (     1         -1          0      )
                  (     1          0         -1      )

 cart.    s(13) = ( -1.0000000  0.0000000  0.0000000 )
                  (  0.0000000  0.0000000  1.0000000 )
                  (  0.0000000  1.0000000  0.0000000 )


      isym = 14     180 deg rotation - cart. axis [0,1,-1]       

 cryst.   s(14) = (    -1          0          0      )
                  (     0          0         -1      )
                  (     0         -1          0      )

 cart.    s(14) = ( -1.0000000  0.0000000  0.0000000 )
                  (  0.0000000  0.0000000 -1.0000000 )
                  (  0.0000000 -1.0000000  0.0000000 )


      isym = 15      90 deg rotation - cart. axis [-1,0,0]       

 cryst.   s(15) = (     0         -1          1      )
                  (     0          0          1      )
                  (    -1          0          1      )

 cart.    s(15) = (  1.0000000  0.0000000  0.0000000 )
                  (  0.0000000  0.0000000  1.0000000 )
                  (  0.0000000 -1.0000000  0.0000000 )


      isym = 16      90 deg rotation - cart. axis [1,0,0]        

 cryst.   s(16) = (     0          1         -1      )
                  (    -1          1          0      )
                  (     0          1          0      )

 cart.    s(16) = (  1.0000000  0.0000000  0.0000000 )
                  (  0.0000000  0.0000000 -1.0000000 )
                  (  0.0000000  1.0000000  0.0000000 )


      isym = 17     120 deg rotation - cart. axis [-1,-1,-1]     

 cryst.   s(17) = (     0          0          1      )
                  (     1          0          0      )
                  (     0          1          0      )

 cart.    s(17) = (  0.0000000  1.0000000  0.0000000 )
                  (  0.0000000  0.0000000  1.0000000 )
                  (  1.0000000  0.0000000  0.0000000 )


      isym = 18     120 deg rotation - cart. axis [-1,1,1]       

 cryst.   s(18) = (     1         -1          0      )
                  (     0         -1          1      )
                  (     0         -1          0      )

 cart.    s(18) = (  0.0000000 -1.0000000  0.0000000 )
                  (  0.0000000  0.0000000  1.0000000 )
                  ( -1.0000000  0.0000000  0.0000000 )


      isym = 19     120 deg rotation - cart. axis [1,1,-1]       

 cryst.   s(19) = (    -1          1          0      )
                  (    -1          0          0      )
                  (    -1          0          1      )

 cart.    s(19) = (  0.0000000  1.0000000  0.0000000 )
                  (  0.0000000  0.0000000 -1.0000000 )
                  ( -1.0000000  0.0000000  0.0000000 )


      isym = 20     120 deg rotation - cart. axis [1,-1,1]       

 cryst.   s(20) = (     0          0         -1      )
                  (     0          1         -1      )
                  (     1          0         -1      )

 cart.    s(20) = (  0.0000000 -1.0000000  0.0000000 )
                  (  0.0000000  0.0000000 -1.0000000 )
                  (  1.0000000  0.0000000  0.0000000 )


      isym = 21     120 deg rotation - cart. axis [1,1,1]        

 cryst.   s(21) = (     0          1          0      )
                  (     0          0          1      )
                  (     1          0          0      )

 cart.    s(21) = (  0.0000000  0.0000000  1.0000000 )
                  (  1.0000000  0.0000000  0.0000000 )
                  (  0.0000000  1.0000000  0.0000000 )


      isym = 22     120 deg rotation - cart. axis [-1,1,-1]      

 cryst.   s(22) = (    -1          0          1      )
                  (    -1          1          0      )
                  (    -1          0          0      )

 cart.    s(22) = (  0.0000000  0.0000000  1.0000000 )
                  ( -1.0000000  0.0000000  0.0000000 )
                  (  0.0000000 -1.0000000  0.0000000 )


      isym = 23     120 deg rotation - cart. axis [1,-1,-1]      

 cryst.   s(23) = (     1          0         -1      )
                  (     0          0         -1      )
                  (     0          1         -1      )

 cart.    s(23) = (  0.0000000  0.0000000 -1.0000000 )
                  ( -1.0000000  0.0000000  0.0000000 )
                  (  0.0000000  1.0000000  0.0000000 )


      isym = 24     120 deg rotation - cart. axis [-1,-1,1]      

 cryst.   s(24) = (     0         -1          0      )
                  (     1         -1          0      )
                  (     0         -1          1      )

 cart.    s(24) = (  0.0000000  0.0000000 -1.0000000 )
                  (  1.0000000  0.0000000  0.0000000 )
                  (  0.0000000 -1.0000000  0.0000000 )


      isym = 25     inversion                                    

 cryst.   s(25) = (    -1          0          0      )
                  (     0         -1          0      )
                  (     0          0         -1      )

 cart.    s(25) = ( -1.0000000  0.0000000  0.0000000 )
                  (  0.0000000 -1.0000000  0.0000000 )
                  (  0.0000000  0.0000000 -1.0000000 )


      isym = 26     inv. 180 deg rotation - cart. axis [0,0,1]   

 cryst.   s(26) = (     0         -1          1      )
                  (    -1          0          1      )
                  (     0          0          1      )

 cart.    s(26) = (  1.0000000  0.0000000  0.0000000 )
                  (  0.0000000  1.0000000  0.0000000 )
                  (  0.0000000  0.0000000 -1.0000000 )


      isym = 27     inv. 180 deg rotation - cart. axis [0,1,0]   

 cryst.   s(27) = (     0          1         -1      )
                  (     0          1          0      )
                  (    -1          1          0      )

 cart.    s(27) = (  1.0000000  0.0000000  0.0000000 )
                  (  0.0000000 -1.0000000  0.0000000 )
                  (  0.0000000  0.0000000  1.0000000 )


      isym = 28     inv. 180 deg rotation - cart. axis [1,0,0]   

 cryst.   s(28) = (     1          0          0      )
                  (     1          0         -1      )
                  (     1         -1          0      )

 cart.    s(28) = ( -1.0000000  0.0000000  0.0000000 )
                  (  0.0000000  1.0000000  0.0000000 )
                  (  0.0000000  0.0000000  1.0000000 )


      isym = 29     inv. 180 deg rotation - cart. axis [1,1,0]   

 cryst.   s(29) = (     1          0         -1      )
                  (     0          1         -1      )
                  (     0          0         -1      )

 cart.    s(29) = (  0.0000000 -1.0000000  0.0000000 )
                  ( -1.0000000  0.0000000  0.0000000 )
                  (  0.0000000  0.0000000  1.0000000 )


      isym = 30     inv. 180 deg rotation - cart. axis [1,-1,0]  

 cryst.   s(30) = (     0          1          0      )
                  (     1          0          0      )
                  (     0          0          1      )

 cart.    s(30) = (  0.0000000  1.0000000  0.0000000 )
                  (  1.0000000  0.0000000  0.0000000 )
                  (  0.0000000  0.0000000  1.0000000 )


      isym = 31     inv.  90 deg rotation - cart. axis [0,0,-1]  

 cryst.   s(31) = (     0         -1          0      )
                  (     0         -1          1      )
                  (     1         -1          0      )

 cart.    s(31) = (  0.0000000 -1.0000000  0.0000000 )
                  (  1.0000000  0.0000000  0.0000000 )
                  (  0.0000000  0.0000000 -1.0000000 )


      isym = 32     inv.  90 deg rotation - cart. axis [0,0,1]   

 cryst.   s(32) = (    -1          0          1      )
                  (    -1          0          0      )
                  (    -1          1          0      )

 cart.    s(32) = (  0.0000000  1.0000000  0.0000000 )
                  ( -1.0000000  0.0000000  0.0000000 )
                  (  0.0000000  0.0000000 -1.0000000 )


      isym = 33     inv. 180 deg rotation - cart. axis [1,0,1]   

 cryst.   s(33) = (     1         -1          0      )
                  (     0         -1          0      )
                  (     0         -1          1      )

 cart.    s(33) = (  0.0000000  0.0000000 -1.0000000 )
                  (  0.0000000  1.0000000  0.0000000 )
                  ( -1.0000000  0.0000000  0.0000000 )


      isym = 34     inv. 180 deg rotation - cart. axis [-1,0,1]  

 cryst.   s(34) = (     0          0          1      )
                  (     0          1          0      )
                  (     1          0          0      )

 cart.    s(34) = (  0.0000000  0.0000000  1.0000000 )
                  (  0.0000000  1.0000000  0.0000000 )
                  (  1.0000000  0.0000000  0.0000000 )


      isym = 35     inv.  90 deg rotation - cart. axis [0,1,0]   

 cryst.   s(35) = (     0          0         -1      )
                  (     1          0         -1      )
                  (     0          1         -1      )

 cart.    s(35) = (  0.0000000  0.0000000 -1.0000000 )
                  (  0.0000000 -1.0000000  0.0000000 )
                  (  1.0000000  0.0000000  0.0000000 )


      isym = 36     inv.  90 deg rotation - cart. axis [0,-1,0]  

 cryst.   s(36) = (    -1          1          0      )
                  (    -1          0          1      )
                  (    -1          0          0      )

 cart.    s(36) = (  0.0000000  0.0000000  1.0000000 )
                  (  0.0000000 -1.0000000  0.0000000 )
                  ( -1.0000000  0.0000000  0.0000000 )


      isym = 37     inv. 180 deg rotation - cart. axis [0,1,1]   

 cryst.   s(37) = (    -1          0          0      )
                  (    -1          1          0      )
                  (    -1          0          1      )

 cart.    s(37) = (  1.0000000  0.0000000  0.0000000 )
                  (  0.0000000  0.0000000 -1.0000000 )
                  (  0.0000000 -1.0000000  0.0000000 )


      isym = 38     inv. 180 deg rotation - cart. axis [0,1,-1]  

 cryst.   s(38) = (     1          0          0      )
                  (     0          0          1      )
                  (     0          1          0      )

 cart.    s(38) = (  1.0000000  0.0000000  0.0000000 )
                  (  0.0000000  0.0000000  1.0000000 )
                  (  0.0000000  1.0000000  0.0000000 )


      isym = 39     inv.  90 deg rotation - cart. axis [-1,0,0]  

 cryst.   s(39) = (     0          1         -1      )
                  (     0          0         -1      )
                  (     1          0         -1      )

 cart.    s(39) = ( -1.0000000  0.0000000  0.0000000 )
                  (  0.0000000  0.0000000 -1.0000000 )
                  (  0.0000000  1.0000000  0.0000000 )


      isym = 40     inv.  90 deg rotation - cart. axis [1,0,0]   

 cryst.   s(40) = (     0         -1          1      )
                  (     1         -1          0      )
                  (     0         -1          0      )

 cart.    s(40) = ( -1.0000000  0.0000000  0.0000000 )
                  (  0.0000000  0.0000000  1.0000000 )
                  (  0.0000000 -1.0000000  0.0000000 )


      isym = 41     inv. 120 deg rotation - cart. axis [-1,-1,-1]

 cryst.   s(41) = (     0          0         -1      )
                  (    -1          0          0      )
                  (     0         -1          0      )

 cart.    s(41) = (  0.0000000 -1.0000000  0.0000000 )
                  (  0.0000000  0.0000000 -1.0000000 )
                  ( -1.0000000  0.0000000  0.0000000 )


      isym = 42     inv. 120 deg rotation - cart. axis [-1,1,1]  

 cryst.   s(42) = (    -1          1          0      )
                  (     0          1         -1      )
                  (     0          1          0      )

 cart.    s(42) = (  0.0000000  1.0000000  0.0000000 )
                  (  0.0000000  0.0000000 -1.0000000 )
                  (  1.0000000  0.0000000  0.0000000 )


      isym = 43     inv. 120 deg rotation - cart. axis [1,1,-1]  

 cryst.   s(43) = (     1         -1          0      )
                  (     1          0          0      )
                  (     1          0         -1      )

 cart.    s(43) = (  0.0000000 -1.0000000  0.0000000 )
                  (  0.0000000  0.0000000  1.0000000 )
                  (  1.0000000  0.0000000  0.0000000 )


      isym = 44     inv. 120 deg rotation - cart. axis [1,-1,1]  

 cryst.   s(44) = (     0          0          1      )
                  (     0         -1          1      )
                  (    -1          0          1      )

 cart.    s(44) = (  0.0000000  1.0000000  0.0000000 )
                  (  0.0000000  0.0000000  1.0000000 )
                  ( -1.0000000  0.0000000  0.0000000 )


      isym = 45     inv. 120 deg rotation - cart. axis [1,1,1]   

 cryst.   s(45) = (     0         -1          0      )
                  (     0          0         -1      )
                  (    -1          0          0      )

 cart.    s(45) = (  0.0000000  0.0000000 -1.0000000 )
                  ( -1.0000000  0.0000000  0.0000000 )
                  (  0.0000000 -1.0000000  0.0000000 )


      isym = 46     inv. 120 deg rotation - cart. axis [-1,1,-1] 

 cryst.   s(46) = (     1          0         -1      )
                  (     1         -1          0      )
                  (     1          0          0      )

 cart.    s(46) = (  0.0000000  0.0000000 -1.0000000 )
                  (  1.0000000  0.0000000  0.0000000 )
                  (  0.0000000  1.0000000  0.0000000 )


      isym = 47     inv. 120 deg rotation - cart. axis [1,-1,-1] 

 cryst.   s(47) = (    -1          0          1      )
                  (     0          0          1      )
                  (     0         -1          1      )

 cart.    s(47) = (  0.0000000  0.0000000  1.0000000 )
                  (  1.0000000  0.0000000  0.0000000 )
                  (  0.0000000 -1.0000000  0.0000000 )


      isym = 48     inv. 120 deg rotation - cart. axis [-1,-1,1] 

 cryst.   s(48) = (     0          1          0      )
                  (    -1          1          0      )
                  (     0          1         -1      )

 cart.    s(48) = (  0.0000000  0.0000000  1.0000000 )
                  ( -1.0000000  0.0000000  0.0000000 )
                  (  0.0000000  1.0000000  0.0000000 )


   Cartesian axes

     site n.     atom                  positions (alat units)
         1           Ni  tau(   1) = (   0.0000000   0.0000000   0.0000000  )

   Crystallographic axes

     site n.     atom                  positions (cryst. coord.)
         1           Ni  tau(   1) = (  0.0000000  0.0000000  0.0000000  )

     number of k points=     8  Gaussian smearing, width (Ry)=  0.0400
                       cart. coord. in units 2pi/alat
        k(    1) = (   0.0000000   0.0000000   0.0000000), wk =   0.0156250
        k(    2) = (   0.0376157   0.0376157  -0.0376157), wk =   0.1250000
        k(    3) = (  -0.0752313  -0.0752313   0.0752313), wk =   0.0625000
        k(    4) = (   0.0752313   0.0000000   0.0000000), wk =   0.0937500
        k(    5) = (  -0.0376157  -0.1128470   0.1128470), wk =   0.3750000
        k(    6) = (   0.0000000  -0.0752313   0.0752313), wk =   0.1875000
        k(    7) = (  -0.1504627   0.0000000   0.0000000), wk =   0.0468750
        k(    8) = (  -0.1504627   0.0752313   0.0000000), wk =   0.0937500

                       cryst. coord.
        k(    1) = (   0.0000000   0.0000000   0.0000000), wk =   0.0156250
        k(    2) = (   0.0000000   0.0000000   0.2500000), wk =   0.1250000
        k(    3) = (   0.0000000   0.0000000  -0.5000000), wk =   0.0625000
        k(    4) = (   0.0000000   0.2500000   0.2500000), wk =   0.0937500
        k(    5) = (   0.0000000   0.2500000  -0.5000000), wk =   0.3750000
        k(    6) = (   0.0000000   0.2500000  -0.2500000), wk =   0.1875000
        k(    7) = (   0.0000000  -0.5000000  -0.5000000), wk =   0.0468750
        k(    8) = (   0.2500000  -0.5000000  -0.2500000), wk =   0.0937500

     Dense  grid:    33487 G-vectors     FFT dimensions: (  45,  45,  45)

     Smooth grid:     5029 G-vectors     FFT dimensions: (  24,  24,  24)

     Dynamical RAM for                 wfc:       0.13 MB

     Dynamical RAM for     wfc (w. buffer):       2.14 MB

     Dynamical RAM for             U proj.:       0.05 MB

     Dynamical RAM for  U proj. (w. buff.):       0.82 MB

     Dynamical RAM for           str. fact:       0.51 MB

     Dynamical RAM for           local pot:       0.00 MB

     Dynamical RAM for          nlocal pot:       0.17 MB

     Dynamical RAM for                qrad:       2.41 MB

     Dynamical RAM for          rho,v,vnew:       7.24 MB

     Dynamical RAM for               rhoin:       2.41 MB

     Dynamical RAM for            rho*nmix:      16.35 MB

     Dynamical RAM for           G-vectors:       1.95 MB

     Dynamical RAM for          h,s,v(r/c):       0.03 MB

     Dynamical RAM for          <psi|beta>:       0.00 MB

     Dynamical RAM for                 psi:       0.25 MB

     Dynamical RAM for                hpsi:       0.25 MB

     Dynamical RAM for                spsi:       0.25 MB

     Dynamical RAM for      wfcinit/wfcrot:       0.26 MB

     Dynamical RAM for           addusdens:      96.06 MB

     Dynamical RAM for          addusforce:      96.07 MB

     Dynamical RAM for         addusstress:     103.47 MB

     Estimated static dynamical RAM per process >      39.21 MB

     Estimated max dynamical RAM per process >     142.68 MB

     Check: negative core charge=   -0.000007
     Generating pointlists ...
     new r_m :   1.9386 (alat units)  1.9386 (a.u.) for type    1

     Initial potential from superposition of free atoms

     starting charge   16.00000, renormalised to   18.00000
 --- in v_hubbard ---
Hubbard energy    0.4425
 -------
     Number of +U iterations with fixed ns =  0
     Starting occupations:
 --- enter write_ns ---
 LDA+U parameters:
U( 1)     = 10.03370000
atom    1   Tr[ns(na)] (up, down, total) =   5.00000  3.00000  8.00000
   spin  1
    eigenvalues: 
  1.000  1.000  1.000  1.000  1.000
    eigenvectors:
  1.000  0.000  0.000  0.000  0.000
  0.000  1.000  0.000  0.000  0.000
  0.000  0.000  1.000  0.000  0.000
  0.000  0.000  0.000  1.000  0.000
  0.000  0.000  0.000  0.000  1.000
    occupations:
  1.000  0.000  0.000  0.000  0.000
  0.000  1.000  0.000  0.000  0.000
  0.000  0.000  1.000  0.000  0.000
  0.000  0.000  0.000  1.000  0.000
  0.000  0.000  0.000  0.000  1.000
   spin  2
    eigenvalues: 
  0.600  0.600  0.600  0.600  0.600
    eigenvectors:
  1.000  0.000  0.000  0.000  0.000
  0.000  1.000  0.000  0.000  0.000
  0.000  0.000  1.000  0.000  0.000
  0.000  0.000  0.000  1.000  0.000
  0.000  0.000  0.000  0.000  1.000
    occupations:
  0.600  0.000  0.000  0.000  0.000
  0.000  0.600  0.000  0.000  0.000
  0.000  0.000  0.600  0.000  0.000
  0.000  0.000  0.000  0.600  0.000
  0.000  0.000  0.000  0.000  0.600
atomic mag. moment =   2.00000
N of occupied +U levels =    8.000000
 --- exit write_ns ---
 Atomic wfc used for LDA+U Projector are NOT orthogonalized
     Starting wfcs are   13 randomized atomic wfcs

     total cpu time spent up to now is        0.8 secs

     Self-consistent Calculation

     iteration #  1     ecut=    64.00 Ry     beta= 0.50
     Davidson diagonalization with overlap
     ethr =  1.00E-02,  avg # of iterations =  3.4
 --- enter write_ns ---
 LDA+U parameters:
U( 1)     = 10.03370000
atom    1   Tr[ns(na)] (up, down, total) =   3.62952  1.94675  5.57627
   spin  1
    eigenvalues: 
  0.715  0.715  0.715  0.743  0.743
    eigenvectors:
  0.000  0.000  0.000  0.104  0.896
  0.106  0.114  0.781  0.000  0.000
  0.373  0.408  0.219  0.000  0.000
  0.000  0.000  0.000  0.896  0.104
  0.522  0.478  0.000  0.000  0.000
    occupations:
  0.743 -0.000 -0.000 -0.000  0.000
 -0.000  0.715 -0.000  0.000  0.000
 -0.000 -0.000  0.715  0.000  0.000
 -0.000  0.000  0.000  0.743 -0.000
  0.000  0.000  0.000 -0.000  0.715
   spin  2
    eigenvalues: 
  0.375  0.375  0.375  0.411  0.411
    eigenvectors:
  0.000  0.000  0.000  0.248  0.752
  0.100  0.132  0.767  0.000  0.000
  0.332  0.435  0.233  0.000  0.000
  0.000  0.000  0.000  0.752  0.248
  0.568  0.432  0.000  0.000  0.000
    occupations:
  0.411 -0.000 -0.000 -0.000  0.000
 -0.000  0.375 -0.000  0.000  0.000
 -0.000 -0.000  0.375  0.000  0.000
 -0.000  0.000  0.000  0.411 -0.000
  0.000  0.000  0.000 -0.000  0.375
atomic mag. moment =   1.68276
N of occupied +U levels =    5.576274
 --- exit write_ns ---
 --- in v_hubbard ---
Hubbard energy    0.8043
 -------

     total cpu time spent up to now is        1.7 secs

     total energy              =    -332.66459588 Ry
     Harris-Foulkes estimate   =    -349.29751429 Ry
     estimated scf accuracy    <      25.75793395 Ry
 
     Band energy sum           =       1.38944372 Ry

     total magnetization       =     1.62 Bohr mag/cell
     absolute magnetization    =     1.75 Bohr mag/cell

     iteration #  2     ecut=    64.00 Ry     beta= 0.50
     Davidson diagonalization with overlap
     ethr =  1.00E-02,  avg # of iterations =  3.2
 --- enter write_ns ---
 LDA+U parameters:
U( 1)     = 10.03370000
atom    1   Tr[ns(na)] (up, down, total) =   4.88248  4.88150  9.76398
   spin  1
    eigenvalues: 
  0.976  0.976  0.977  0.977  0.977
    eigenvectors:
  0.098  0.902  0.000  0.000  0.000
  0.000  0.000  0.104  0.173  0.723
  0.000  0.000  0.334  0.390  0.275
  0.902  0.098  0.000  0.000  0.000
  0.000  0.000  0.562  0.437  0.002
    occupations:
  0.976 -0.000 -0.000 -0.000  0.000
 -0.000  0.977 -0.000  0.000  0.000
 -0.000 -0.000  0.977  0.000  0.000
 -0.000  0.000  0.000  0.976 -0.000
  0.000  0.000  0.000 -0.000  0.977
   spin  2
    eigenvalues: 
  0.976  0.976  0.977  0.977  0.977
    eigenvectors:
  0.133  0.867  0.000  0.000  0.000
  0.000  0.000  0.105  0.245  0.650
  0.000  0.000  0.323  0.336  0.342
  0.867  0.133  0.000  0.000  0.000
  0.000  0.000  0.572  0.419  0.009
    occupations:
  0.976 -0.000 -0.000 -0.000  0.000
 -0.000  0.977 -0.000  0.000  0.000
 -0.000 -0.000  0.977  0.000  0.000
 -0.000  0.000  0.000  0.976 -0.000
  0.000  0.000  0.000 -0.000  0.977
atomic mag. moment =   0.00098
N of occupied +U levels =    9.763978
 --- exit write_ns ---
 --- in v_hubbard ---
Hubbard energy    0.7537
 -------

     total cpu time spent up to now is        2.5 secs

     total energy              =    -340.44801337 Ry
     Harris-Foulkes estimate   =    -346.55241117 Ry
     estimated scf accuracy    <      15.60915734 Ry
 
     Band energy sum           =     -46.22293659 Ry

     total magnetization       =    -0.00 Bohr mag/cell
     absolute magnetization    =     0.02 Bohr mag/cell

     iteration #  3     ecut=    64.00 Ry     beta= 0.50
     Davidson diagonalization with overlap
     ethr =  1.00E-02,  avg # of iterations =  2.0
 --- enter write_ns ---
 LDA+U parameters:
U( 1)     = 10.03370000
atom    1   Tr[ns(na)] (up, down, total) =   4.88145  4.01936  8.90081
   spin  1
    eigenvalues: 
  0.973  0.973  0.973  0.981  0.981
    eigenvectors:
  0.000  0.000  0.000  0.079  0.921
  0.105  0.143  0.752  0.000  0.000
  0.338  0.414  0.248  0.000  0.000
  0.000  0.000  0.000  0.921  0.079
  0.557  0.443  0.000  0.000  0.000
    occupations:
  0.981 -0.000 -0.000 -0.000  0.000
 -0.000  0.973 -0.000  0.000  0.000
 -0.000 -0.000  0.973  0.000  0.000
 -0.000  0.000  0.000  0.981 -0.000
  0.000  0.000  0.000 -0.000  0.973
   spin  2
    eigenvalues: 
  0.766  0.766  0.766  0.860  0.860
    eigenvectors:
  0.000  0.000  0.000  0.054  0.946
  0.106  0.137  0.758  0.000  0.000
  0.342  0.416  0.242  0.000  0.000
  0.000  0.000  0.000  0.946  0.054
  0.552  0.448  0.000  0.000  0.000
    occupations:
  0.860 -0.000 -0.000 -0.000  0.000
 -0.000  0.766 -0.000  0.000  0.000
 -0.000 -0.000  0.766  0.000  0.000
 -0.000  0.000  0.000  0.860 -0.000
  0.000  0.000  0.000 -0.000  0.766
atomic mag. moment =   0.86209
N of occupied +U levels =    8.900808
 --- exit write_ns ---
 --- in v_hubbard ---
Hubbard energy    0.5817
 -------

     total cpu time spent up to now is        3.3 secs

     total energy              =    -342.70568575 Ry
     Harris-Foulkes estimate   =    -342.57341154 Ry
     estimated scf accuracy    <       0.19041191 Ry
 
     Band energy sum           =     -22.57270219 Ry

     total magnetization       =     0.82 Bohr mag/cell
     absolute magnetization    =     1.04 Bohr mag/cell

     iteration #  4     ecut=    64.00 Ry     beta= 0.50
     Davidson diagonalization with overlap
     ethr =  1.06E-03,  avg # of iterations =  1.6
 --- enter write_ns ---
 LDA+U parameters:
U( 1)     = 10.03370000
atom    1   Tr[ns(na)] (up, down, total) =   4.86497  4.23035  9.09532
   spin  1
    eigenvalues: 
  0.970  0.970  0.970  0.977  0.977
    eigenvectors:
  0.000  0.000  0.000  0.246  0.754
  0.102  0.210  0.688  0.000  0.000
  0.325  0.367  0.308  0.000  0.000
  0.000  0.000  0.000  0.754  0.246
  0.573  0.423  0.005  0.000  0.000
    occupations:
  0.977 -0.000 -0.000 -0.000  0.000
 -0.000  0.970 -0.000  0.000  0.000
 -0.000 -0.000  0.970  0.000  0.000
 -0.000  0.000  0.000  0.977 -0.000
  0.000  0.000  0.000 -0.000  0.970
   spin  2
    eigenvalues: 
  0.796  0.796  0.796  0.922  0.922
    eigenvectors:
  0.000  0.000  0.000  0.096  0.904
  0.103  0.131  0.766  0.000  0.000
  0.343  0.423  0.234  0.000  0.000
  0.000  0.000  0.000  0.904  0.096
  0.554  0.446  0.000  0.000  0.000
    occupations:
  0.922 -0.000 -0.000 -0.000  0.000
 -0.000  0.796 -0.000  0.000  0.000
 -0.000 -0.000  0.796  0.000  0.000
 -0.000  0.000  0.000  0.922 -0.000
  0.000  0.000  0.000 -0.000  0.796
atomic mag. moment =   0.63462
N of occupied +U levels =    9.095316
 --- exit write_ns ---
 --- in v_hubbard ---
Hubbard energy    0.2575
 -------

     total cpu time spent up to now is        3.9 secs

     total energy              =    -342.76436782 Ry
     Harris-Foulkes estimate   =    -342.71541417 Ry
     estimated scf accuracy    <       0.10281949 Ry
 
     Band energy sum           =     -22.86218432 Ry

     total magnetization       =     0.53 Bohr mag/cell
     absolute magnetization    =     0.83 Bohr mag/cell

     iteration #  5     ecut=    64.00 Ry     beta= 0.50
     Davidson diagonalization with overlap
     ethr =  5.71E-04,  avg # of iterations =  2.4
 --- enter write_ns ---
 LDA+U parameters:
U( 1)     = 10.03370000
atom    1   Tr[ns(na)] (up, down, total) =   4.81723  4.24267  9.05990
   spin  1
    eigenvalues: 
  0.961  0.961  0.961  0.968  0.968
    eigenvectors:
  0.000  0.000  0.000  0.132  0.868
  0.106  0.228  0.666  0.000  0.000
  0.338  0.336  0.326  0.000  0.000
  0.000  0.000  0.000  0.868  0.132
  0.556  0.437  0.008  0.000  0.000
    occupations:
  0.968 -0.000 -0.000 -0.000  0.000
 -0.000  0.961 -0.000  0.000  0.000
 -0.000 -0.000  0.961  0.000  0.000
 -0.000  0.000  0.000  0.968 -0.000
  0.000  0.000  0.000 -0.000  0.961
   spin  2
    eigenvalues: 
  0.786  0.786  0.786  0.942  0.942
    eigenvectors:
  0.000  0.000  0.000  0.228  0.772
  0.112  0.132  0.756  0.000  0.000
  0.362  0.394  0.244  0.000  0.000
  0.000  0.000  0.000  0.772  0.228
  0.526  0.474  0.000  0.000  0.000
    occupations:
  0.942 -0.000 -0.000 -0.000  0.000
 -0.000  0.786 -0.000  0.000  0.000
 -0.000 -0.000  0.786  0.000  0.000
 -0.000  0.000  0.000  0.942 -0.000
  0.000  0.000  0.000 -0.000  0.786
atomic mag. moment =   0.57456
N of occupied +U levels =    9.059902
 --- exit write_ns ---
 --- in v_hubbard ---
Hubbard energy    0.2882
 -------

     total cpu time spent up to now is        4.6 secs

     total energy              =    -342.77487563 Ry
     Harris-Foulkes estimate   =    -342.77707649 Ry
     estimated scf accuracy    <       0.00678139 Ry
 
     Band energy sum           =     -21.78324742 Ry

     total magnetization       =     0.47 Bohr mag/cell
     absolute magnetization    =     0.74 Bohr mag/cell

     iteration #  6     ecut=    64.00 Ry     beta= 0.50
     Davidson diagonalization with overlap
     ethr =  3.77E-05,  avg # of iterations =  2.0
 --- enter write_ns ---
 LDA+U parameters:
U( 1)     = 10.03370000
atom    1   Tr[ns(na)] (up, down, total) =   4.83361  4.28031  9.11393
   spin  1
    eigenvalues: 
  0.964  0.964  0.964  0.971  0.971
    eigenvectors:
  0.000  0.000  0.000  0.369  0.631
  0.104  0.127  0.769  0.000  0.000
  0.353  0.416  0.231  0.000  0.000
  0.000  0.000  0.000  0.631  0.369
  0.543  0.457  0.000  0.000  0.000
    occupations:
  0.971 -0.000 -0.000 -0.000  0.000
 -0.000  0.964 -0.000  0.000  0.000
 -0.000 -0.000  0.964  0.000  0.000
 -0.000  0.000  0.000  0.971 -0.000
  0.000  0.000  0.000 -0.000  0.964
   spin  2
    eigenvalues: 
  0.794  0.794  0.794  0.949  0.949
    eigenvectors:
  0.000  0.000  0.000  0.357  0.643
  0.112  0.290  0.598  0.000  0.000
  0.332  0.283  0.385  0.000  0.000
  0.000  0.000  0.000  0.643  0.357
  0.556  0.427  0.017  0.000  0.000
    occupations:
  0.949 -0.000 -0.000 -0.000  0.000
 -0.000  0.794 -0.000  0.000  0.000
 -0.000 -0.000  0.794  0.000  0.000
 -0.000  0.000  0.000  0.949 -0.000
  0.000  0.000  0.000 -0.000  0.794
atomic mag. moment =   0.55330
N of occupied +U levels =    9.113928
 --- exit write_ns ---
 --- in v_hubbard ---
Hubbard energy    0.2801
 -------

     total cpu time spent up to now is        5.3 secs

     total energy              =    -342.77659887 Ry
     Harris-Foulkes estimate   =    -342.77718926 Ry
     estimated scf accuracy    <       0.00257243 Ry
 
     Band energy sum           =     -22.32596387 Ry

     total magnetization       =     0.47 Bohr mag/cell
     absolute magnetization    =     0.70 Bohr mag/cell

     iteration #  7     ecut=    64.00 Ry     beta= 0.50
     Davidson diagonalization with overlap
     ethr =  1.43E-05,  avg # of iterations =  2.1
 --- enter write_ns ---
 LDA+U parameters:
U( 1)     = 10.03370000
atom    1   Tr[ns(na)] (up, down, total) =   4.81787  4.26928  9.08715
   spin  1
    eigenvalues: 
  0.961  0.961  0.961  0.968  0.968
    eigenvectors:
  0.000  0.000  0.000  0.155  0.845
  0.108  0.132  0.759  0.000  0.000
  0.356  0.403  0.241  0.000  0.000
  0.000  0.000  0.000  0.845  0.155
  0.535  0.465  0.000  0.000  0.000
    occupations:
  0.968 -0.000 -0.000 -0.000  0.000
 -0.000  0.961 -0.000  0.000  0.000
 -0.000 -0.000  0.961  0.000  0.000
 -0.000  0.000  0.000  0.968 -0.000
  0.000  0.000  0.000 -0.000  0.961
   spin  2
    eigenvalues: 
  0.790  0.790  0.790  0.950  0.950
    eigenvectors:
  0.000  0.000  0.000  0.124  0.876
  0.113  0.206  0.681  0.000  0.000
  0.349  0.337  0.314  0.000  0.000
  0.000  0.000  0.000  0.876  0.124
  0.538  0.456  0.005  0.000  0.000
    occupations:
  0.950 -0.000 -0.000 -0.000  0.000
 -0.000  0.790 -0.000  0.000  0.000
 -0.000 -0.000  0.790  0.000  0.000
 -0.000  0.000  0.000  0.950 -0.000
  0.000  0.000  0.000 -0.000  0.790
atomic mag. moment =   0.54859
N of occupied +U levels =    9.087152
 --- exit write_ns ---
 --- in v_hubbard ---
Hubbard energy    0.2803
 -------

     total cpu time spent up to now is        6.0 secs

     total energy              =    -342.77715002 Ry
     Harris-Foulkes estimate   =    -342.77725945 Ry
     estimated scf accuracy    <       0.00028800 Ry
 
     Band energy sum           =     -22.02130996 Ry

     total magnetization       =     0.47 Bohr mag/cell
     absolute magnetization    =     0.68 Bohr mag/cell

     iteration #  8     ecut=    64.00 Ry     beta= 0.50
     Davidson diagonalization with overlap
     ethr =  1.60E-06,  avg # of iterations =  2.0
 --- enter write_ns ---
 LDA+U parameters:
U( 1)     = 10.03370000
atom    1   Tr[ns(na)] (up, down, total) =   4.81960  4.27800  9.09759
   spin  1
    eigenvalues: 
  0.961  0.961  0.961  0.968  0.968
    eigenvectors:
  0.000  0.000  0.000  0.171  0.829
  0.110  0.241  0.649  0.000  0.000
  0.343  0.316  0.341  0.000  0.000
  0.000  0.000  0.000  0.829  0.171
  0.546  0.443  0.010  0.000  0.000
    occupations:
  0.968 -0.000 -0.000 -0.000  0.000
 -0.000  0.961 -0.000  0.000  0.000
 -0.000 -0.000  0.961  0.000  0.000
 -0.000  0.000  0.000  0.968 -0.000
  0.000  0.000  0.000 -0.000  0.961
   spin  2
    eigenvalues: 
  0.792  0.792  0.792  0.952  0.952
    eigenvectors:
  0.000  0.000  0.000  0.104  0.896
  0.108  0.130  0.763  0.000  0.000
  0.354  0.408  0.237  0.000  0.000
  0.000  0.000  0.000  0.896  0.104
  0.538  0.462  0.000  0.000  0.000
    occupations:
  0.952 -0.000 -0.000 -0.000  0.000
 -0.000  0.792 -0.000  0.000  0.000
 -0.000 -0.000  0.792  0.000  0.000
 -0.000  0.000  0.000  0.952 -0.000
  0.000  0.000  0.000 -0.000  0.792
atomic mag. moment =   0.54160
N of occupied +U levels =    9.097590
 --- exit write_ns ---
 --- in v_hubbard ---
Hubbard energy    0.2816
 -------

     total cpu time spent up to now is        6.7 secs

     total energy              =    -342.77724242 Ry
     Harris-Foulkes estimate   =    -342.77724135 Ry
     estimated scf accuracy    <       0.00002772 Ry
 
     Band energy sum           =     -22.12196772 Ry

     total magnetization       =     0.47 Bohr mag/cell
     absolute magnetization    =     0.66 Bohr mag/cell

     iteration #  9     ecut=    64.00 Ry     beta= 0.50
     Davidson diagonalization with overlap
     ethr =  1.54E-07,  avg # of iterations =  1.2
 --- enter write_ns ---
 LDA+U parameters:
U( 1)     = 10.03370000
atom    1   Tr[ns(na)] (up, down, total) =   4.81975  4.27747  9.09722
   spin  1
    eigenvalues: 
  0.961  0.961  0.961  0.968  0.968
    eigenvectors:
  0.000  0.000  0.000  0.210  0.790
  0.105  0.131  0.765  0.000  0.000
  0.350  0.415  0.235  0.000  0.000
  0.000  0.000  0.000  0.790  0.210
  0.545  0.454  0.000  0.000  0.000
    occupations:
  0.968 -0.000 -0.000 -0.000  0.000
 -0.000  0.961 -0.000  0.000  0.000
 -0.000 -0.000  0.961  0.000  0.000
 -0.000  0.000  0.000  0.968 -0.000
  0.000  0.000  0.000 -0.000  0.961
   spin  2
    eigenvalues: 
  0.792  0.792  0.792  0.951  0.951
    eigenvectors:
  0.000  0.000  0.000  0.079  0.921
  0.110  0.335  0.556  0.000  0.000
  0.314  0.265  0.421  0.000  0.000
  0.000  0.000  0.000  0.921  0.079
  0.576  0.400  0.024  0.000  0.000
    occupations:
  0.951 -0.000 -0.000 -0.000  0.000
 -0.000  0.792 -0.000  0.000  0.000
 -0.000 -0.000  0.792  0.000  0.000
 -0.000  0.000  0.000  0.951 -0.000
  0.000  0.000  0.000 -0.000  0.792
atomic mag. moment =   0.54228
N of occupied +U levels =    9.097218
 --- exit write_ns ---
 --- in v_hubbard ---
Hubbard energy    0.2813
 -------

     total cpu time spent up to now is        7.3 secs

     total energy              =    -342.77723759 Ry
     Harris-Foulkes estimate   =    -342.77724323 Ry
     estimated scf accuracy    <       0.00002113 Ry
 
     Band energy sum           =     -22.12002293 Ry

     total magnetization       =     0.47 Bohr mag/cell
     absolute magnetization    =     0.66 Bohr mag/cell

     iteration # 10     ecut=    64.00 Ry     beta= 0.50
     Davidson diagonalization with overlap
     ethr =  1.17E-07,  avg # of iterations =  1.4
 --- enter write_ns ---
 LDA+U parameters:
U( 1)     = 10.03370000
atom    1   Tr[ns(na)] (up, down, total) =   4.81888  4.27685  9.09573
   spin  1
    eigenvalues: 
  0.961  0.961  0.961  0.968  0.968
    eigenvectors:
  0.000  0.000  0.000  0.218  0.782
  0.107  0.263  0.630  0.000  0.000
  0.328  0.314  0.358  0.000  0.000
  0.000  0.000  0.000  0.782  0.218
  0.564  0.423  0.012  0.000  0.000
    occupations:
  0.968 -0.000 -0.000 -0.000  0.000
 -0.000  0.961 -0.000  0.000  0.000
 -0.000 -0.000  0.961  0.000  0.000
 -0.000  0.000  0.000  0.968 -0.000
  0.000  0.000  0.000 -0.000  0.961
   spin  2
    eigenvalues: 
  0.792  0.792  0.792  0.951  0.951
    eigenvectors:
  0.000  0.000  0.000  0.270  0.730
  0.103  0.142  0.755  0.000  0.000
  0.331  0.424  0.245  0.000  0.000
  0.000  0.000  0.000  0.730  0.270
  0.566  0.434  0.000  0.000  0.000
    occupations:
  0.951 -0.000 -0.000 -0.000  0.000
 -0.000  0.792 -0.000  0.000  0.000
 -0.000 -0.000  0.792  0.000  0.000
 -0.000  0.000  0.000  0.951 -0.000
  0.000  0.000  0.000 -0.000  0.792
atomic mag. moment =   0.54203
N of occupied +U levels =    9.095725
 --- exit write_ns ---
 --- in v_hubbard ---
Hubbard energy    0.2813
 -------

     total cpu time spent up to now is        7.9 secs

     total energy              =    -342.77723918 Ry
     Harris-Foulkes estimate   =    -342.77723961 Ry
     estimated scf accuracy    <       0.00000119 Ry
 
     Band energy sum           =     -22.10276923 Ry

     total magnetization       =     0.47 Bohr mag/cell
     absolute magnetization    =     0.66 Bohr mag/cell

     iteration # 11     ecut=    64.00 Ry     beta= 0.50
     Davidson diagonalization with overlap
     ethr =  6.59E-09,  avg # of iterations =  2.2
 --- enter write_ns ---
 LDA+U parameters:
U( 1)     = 10.03370000
atom    1   Tr[ns(na)] (up, down, total) =   4.81868  4.27656  9.09525
   spin  1
    eigenvalues: 
  0.961  0.961  0.961  0.968  0.968
    eigenvectors:
  0.000  0.000  0.000  0.137  0.863
  0.119  0.315  0.567  0.000  0.000
  0.335  0.255  0.410  0.000  0.000
  0.000  0.000  0.000  0.863  0.137
  0.547  0.431  0.023  0.000  0.000
    occupations:
  0.968 -0.000 -0.000 -0.000  0.000
 -0.000  0.961 -0.000  0.000  0.000
 -0.000 -0.000  0.961  0.000  0.000
 -0.000  0.000  0.000  0.968 -0.000
  0.000  0.000  0.000 -0.000  0.961
   spin  2
    eigenvalues: 
  0.791  0.791  0.791  0.951  0.951
    eigenvectors:
  0.000  0.000  0.000  0.140  0.860
  0.104  0.141  0.755  0.000  0.000
  0.336  0.420  0.245  0.000  0.000
  0.000  0.000  0.000  0.860  0.140
  0.560  0.440  0.000  0.000  0.000
    occupations:
  0.951 -0.000 -0.000 -0.000  0.000
 -0.000  0.791 -0.000  0.000  0.000
 -0.000 -0.000  0.791  0.000  0.000
 -0.000  0.000  0.000  0.951 -0.000
  0.000  0.000  0.000 -0.000  0.791
atomic mag. moment =   0.54212
N of occupied +U levels =    9.095247
 --- exit write_ns ---
 --- in v_hubbard ---
Hubbard energy    0.2813
 -------

     total cpu time spent up to now is        8.6 secs

     total energy              =    -342.77723943 Ry
     Harris-Foulkes estimate   =    -342.77723940 Ry
     estimated scf accuracy    <       0.00000005 Ry
 
     Band energy sum           =     -22.09760781 Ry

     total magnetization       =     0.47 Bohr mag/cell
     absolute magnetization    =     0.66 Bohr mag/cell

     iteration # 12     ecut=    64.00 Ry     beta= 0.50
     Davidson diagonalization with overlap
     ethr =  2.75E-10,  avg # of iterations =  1.8
 --- enter write_ns ---
 LDA+U parameters:
U( 1)     = 10.03370000
atom    1   Tr[ns(na)] (up, down, total) =   4.81865  4.27670  9.09536
   spin  1
    eigenvalues: 
  0.961  0.961  0.961  0.968  0.968
    eigenvectors:
  0.000  0.000  0.000  0.153  0.847
  0.117  0.256  0.626  0.000  0.000
  0.346  0.293  0.361  0.000  0.000
  0.000  0.000  0.000  0.847  0.153
  0.537  0.451  0.013  0.000  0.000
    occupations:
  0.968 -0.000 -0.000 -0.000  0.000
 -0.000  0.961 -0.000  0.000  0.000
 -0.000 -0.000  0.961  0.000  0.000
 -0.000  0.000  0.000  0.968 -0.000
  0.000  0.000  0.000 -0.000  0.961
   spin  2
    eigenvalues: 
  0.792  0.792  0.792  0.951  0.951
    eigenvectors:
  0.000  0.000  0.000  0.146  0.854
  0.102  0.068  0.830  0.000  0.000
  0.380  0.453  0.167  0.000  0.000
  0.000  0.000  0.000  0.854  0.146
  0.517  0.480  0.003  0.000  0.000
    occupations:
  0.951 -0.000 -0.000 -0.000  0.000
 -0.000  0.792 -0.000  0.000  0.000
 -0.000 -0.000  0.792  0.000  0.000
 -0.000  0.000  0.000  0.951 -0.000
  0.000  0.000  0.000 -0.000  0.792
atomic mag. moment =   0.54195
N of occupied +U levels =    9.095358
 --- exit write_ns ---
 --- in v_hubbard ---
Hubbard energy    0.2813
 -------

     total cpu time spent up to now is        9.3 secs

     total energy              =    -342.77723944 Ry
     Harris-Foulkes estimate   =    -342.77723944 Ry
     estimated scf accuracy    <       0.00000003 Ry
 
     Band energy sum           =     -22.09833937 Ry

     total magnetization       =     0.47 Bohr mag/cell
     absolute magnetization    =     0.66 Bohr mag/cell

     iteration # 13     ecut=    64.00 Ry     beta= 0.50
     Davidson diagonalization with overlap
     ethr =  1.64E-10,  avg # of iterations =  1.4
 --- enter write_ns ---
 LDA+U parameters:
U( 1)     = 10.03370000
atom    1   Tr[ns(na)] (up, down, total) =   4.81862  4.27668  9.09530
   spin  1
    eigenvalues: 
  0.961  0.961  0.961  0.968  0.968
    eigenvectors:
  0.000  0.000  0.000  0.098  0.902
  0.106  0.240  0.653  0.000  0.000
  0.331  0.331  0.338  0.000  0.000
  0.000  0.000  0.000  0.902  0.098
  0.563  0.429  0.009  0.000  0.000
    occupations:
  0.968 -0.000 -0.000 -0.000  0.000
 -0.000  0.961 -0.000  0.000  0.000
 -0.000 -0.000  0.961  0.000  0.000
 -0.000  0.000  0.000  0.968 -0.000
  0.000  0.000  0.000 -0.000  0.961
   spin  2
    eigenvalues: 
  0.792  0.792  0.792  0.951  0.951
    eigenvectors:
  0.000  0.000  0.000  0.182  0.818
  0.111  0.137  0.752  0.000  0.000
  0.354  0.398  0.248  0.000  0.000
  0.000  0.000  0.000  0.818  0.182
  0.535  0.465  0.000  0.000  0.000
    occupations:
  0.951 -0.000 -0.000 -0.000  0.000
 -0.000  0.792 -0.000  0.000  0.000
 -0.000 -0.000  0.792  0.000  0.000
 -0.000  0.000  0.000  0.951 -0.000
  0.000  0.000  0.000 -0.000  0.792
atomic mag. moment =   0.54194
N of occupied +U levels =    9.095296
 --- exit write_ns ---
 --- in v_hubbard ---
Hubbard energy    0.2813
 -------

     total cpu time spent up to now is       10.0 secs

     total energy              =    -342.77723944 Ry
     Harris-Foulkes estimate   =    -342.77723944 Ry
     estimated scf accuracy    <          5.7E-10 Ry
 
     Band energy sum           =     -22.09763183 Ry

     total magnetization       =     0.47 Bohr mag/cell
     absolute magnetization    =     0.66 Bohr mag/cell

     iteration # 14     ecut=    64.00 Ry     beta= 0.50
     Davidson diagonalization with overlap
     ethr =  3.15E-12,  avg # of iterations =  3.0
 --- enter write_ns ---
 LDA+U parameters:
U( 1)     = 10.03370000
atom    1   Tr[ns(na)] (up, down, total) =   4.81861  4.27667  9.09529
   spin  1
    eigenvalues: 
  0.961  0.961  0.961  0.968  0.968
    eigenvectors:
  0.000  0.000  0.000  0.048  0.952
  0.111  0.223  0.666  0.000  0.000
  0.348  0.325  0.327  0.000  0.000
  0.000  0.000  0.000  0.952  0.048
  0.541  0.452  0.008  0.000  0.000
    occupations:
  0.968 -0.000 -0.000 -0.000  0.000
 -0.000  0.961 -0.000  0.000  0.000
 -0.000 -0.000  0.961  0.000  0.000
 -0.000  0.000  0.000  0.968 -0.000
  0.000  0.000  0.000 -0.000  0.961
   spin  2
    eigenvalues: 
  0.792  0.792  0.792  0.951  0.951
    eigenvectors:
  0.000  0.000  0.000  0.167  0.833
  0.111  0.284  0.606  0.000  0.000
  0.322  0.298  0.380  0.000  0.000
  0.000  0.000  0.000  0.833  0.167
  0.567  0.419  0.015  0.000  0.000
    occupations:
  0.951 -0.000 -0.000 -0.000  0.000
 -0.000  0.792 -0.000  0.000  0.000
 -0.000 -0.000  0.792  0.000  0.000
 -0.000  0.000  0.000  0.951 -0.000
  0.000  0.000  0.000 -0.000  0.792
atomic mag. moment =   0.54194
N of occupied +U levels =    9.095286
 --- exit write_ns ---
 --- in v_hubbard ---
Hubbard energy    0.2813
 -------

     Magnetic moment per site:
     atom:    1    charge:   16.8324    magn:    0.5398    constr:    0.0000

     total cpu time spent up to now is       10.7 secs

     End of self-consistent calculation

 ------ SPIN UP ------------


          k = 0.0000 0.0000 0.0000 (   609 PWs)   bands (ev):

   -83.6677 -44.1439 -44.1439 -44.1439   8.6830  12.0812  12.0812  12.0812
    13.5526  13.5526  41.1861  45.2084  45.2084

     occupation numbers 
     1.0000   1.0000   1.0000   1.0000   1.0000   1.0000   1.0000   1.0000
     1.0000   1.0000   0.0000   0.0000   0.0000

          k = 0.0376 0.0376-0.0376 (   631 PWs)   bands (ev):

   -83.6537 -44.2657 -44.1615 -44.1615  10.0007  12.3575  12.3575  12.5393
    13.6596  13.6596  32.3882  41.2970  43.2489

     occupation numbers 
     1.0000   1.0000   1.0000   1.0000   1.0000   1.0000   1.0000   1.0000
     1.0000   1.0000   0.0000   0.0000   0.0000

          k =-0.0752-0.0752 0.0752 (   628 PWs)   bands (ev):

   -83.6474 -44.3839 -44.1783 -44.1783   9.4668  12.0395  12.0395  14.4656
    14.4656  17.4348  23.5930  39.6445  42.4800

     occupation numbers 
     1.0000   1.0000   1.0000   1.0000   1.0000   1.0000   1.0000   1.0000
     1.0000   0.0060   0.0000   0.0000   0.0000

          k = 0.0752 0.0000 0.0000 (   632 PWs)   bands (ev):

   -83.6458 -44.2596 -44.1901 -44.1901  10.3939  10.8648  13.2051  13.2051
    13.7761  14.0127  37.1175  37.1175  37.8539

     occupation numbers 
     1.0000   1.0000   1.0000   1.0000   1.0000   1.0000   1.0000   1.0000
     1.0000   1.0000   0.0000   0.0000   0.0000

          k =-0.0376-0.1128 0.1128 (   637 PWs)   bands (ev):

   -83.6309 -44.3459 -44.2454 -44.2067  10.2335  10.9465  12.5524  13.1964
    14.5321  19.7234  26.4013  32.5259  36.0231

     occupation numbers 
     1.0000   1.0000   1.0000   1.0000   1.0000   1.0000   1.0000   1.0000
     1.0000   0.0000   0.0000   0.0000   0.0000

          k = 0.0000-0.0752 0.0752 (   636 PWs)   bands (ev):

   -83.6366 -44.3185 -44.2514 -44.1791  11.1708  11.3602  11.9069  12.9659
    13.4668  17.9022  29.5449  30.8161  40.8301

     occupation numbers 
     1.0000   1.0000   1.0000   1.0000   1.0000   1.0000   1.0000   1.0000
     1.0000   0.0001   0.0000   0.0000   0.0000

          k =-0.1505 0.0000 0.0000 (   636 PWs)   bands (ev):

   -83.6262 -44.3708 -44.2335 -44.2335   9.2231   9.7322  14.4864  14.6750
    14.6750  20.2337  27.2909  32.5876  32.5876

     occupation numbers 
     1.0000   1.0000   1.0000   1.0000   1.0000   1.0000   1.0000   1.0000
     1.0000   0.0000   0.0000   0.0000   0.0000

          k =-0.1505 0.0752 0.0000 (   648 PWs)   bands (ev):

   -83.6203 -44.3073 -44.3073 -44.2403  10.3778  11.4347  11.4347  13.4864
    14.6764  25.6529  25.6529  27.9586  29.0094

     occupation numbers 
     1.0000   1.0000   1.0000   1.0000   1.0000   1.0000   1.0000   1.0000
     1.0000   0.0000   0.0000   0.0000   0.0000

 ------ SPIN DOWN ----------


          k = 0.0000 0.0000 0.0000 (   609 PWs)   bands (ev):

   -82.8887 -43.3900 -43.3900 -43.3900   8.5262  14.2082  14.2082  14.4605
    14.4605  14.4605  40.8745  45.0671  45.0671

     occupation numbers 
     1.0000   1.0000   1.0000   1.0000   1.0000   1.0000   1.0000   1.0000
     1.0000   1.0000   0.0000   0.0000   0.0000

          k = 0.0376 0.0376-0.0376 (   631 PWs)   bands (ev):

   -82.8725 -43.5164 -43.4081 -43.4081  10.5610  13.6754  13.6754  14.1262
    15.3513  15.3513  32.4694  41.0534  43.2453

     occupation numbers 
     1.0000   1.0000   1.0000   1.0000   1.0000   1.0000   1.0000   1.0000
     0.9982   0.9982   0.0000   0.0000   0.0000

          k =-0.0752-0.0752 0.0752 (   628 PWs)   bands (ev):

   -82.8610 -43.6398 -43.4256 -43.4256  11.4239  13.1271  13.1271  16.3799
    16.3799  17.2622  24.1024  39.3824  42.4439

     occupation numbers 
     1.0000   1.0000   1.0000   1.0000   1.0000   1.0000   1.0000   0.5912
     0.5912   0.0196   0.0000   0.0000   0.0000

          k = 0.0752 0.0000 0.0000 (   632 PWs)   bands (ev):

   -82.8659 -43.5105 -43.4374 -43.4374  10.5385  13.2119  14.0703  14.6809
    15.5520  15.5520  37.1017  37.1017  37.7610

     occupation numbers 
     1.0000   1.0000   1.0000   1.0000   1.0000   1.0000   1.0000   1.0000
     0.9914   0.9914   0.0000   0.0000   0.0000

          k =-0.0376-0.1128 0.1128 (   637 PWs)   bands (ev):

   -82.8489 -43.5994 -43.4939 -43.4550  11.1040  12.7016  14.1525  14.5147
    16.5874  20.1231  26.5749  32.5386  35.9773

     occupation numbers 
     1.0000   1.0000   1.0000   1.0000   1.0000   1.0000   1.0000   1.0000
     0.3789   0.0000   0.0000   0.0000   0.0000

          k = 0.0000-0.0752 0.0752 (   636 PWs)   bands (ev):

   -82.8543 -43.5713 -43.4993 -43.4264  12.2965  12.8549  13.5705  13.5858
    15.8364  18.6727  29.7032  30.8467  40.8120

     occupation numbers 
     1.0000   1.0000   1.0000   1.0000   1.0000   1.0000   1.0000   1.0000
     0.9498   0.0000   0.0000   0.0000   0.0000

          k =-0.1505 0.0000 0.0000 (   636 PWs)   bands (ev):

   -82.8453 -43.6260 -43.4829 -43.4829   9.6495  12.0741  15.1685  17.0437
    17.0437  20.0683  27.4443  32.4797  32.4797

     occupation numbers 
     1.0000   1.0000   1.0000   1.0000   1.0000   1.0000   0.9996   0.0676
     0.0676   0.0000   0.0000   0.0000   0.0000

          k =-0.1505 0.0752 0.0000 (   648 PWs)   bands (ev):

   -82.8396 -43.5578 -43.5578 -43.4898  10.8380  13.5928  13.5928  14.1140
    17.0452  25.8076  25.8076  28.0343  29.0358

     occupation numbers 
     1.0000   1.0000   1.0000   1.0000   1.0000   1.0000   1.0000   1.0000
     0.0671   0.0000   0.0000   0.0000   0.0000

     the Fermi energy is    16.4687 ev

!    total energy              =    -342.77723944 Ry
     Harris-Foulkes estimate   =    -342.77723944 Ry
     estimated scf accuracy    <          6.4E-12 Ry
     smearing contrib. (-TS)   =      -0.00693172 Ry
     internal energy E=F+TS    =    -342.77030772 Ry

     The total energy is F=E-TS. E is the sum of the following terms:
     one-electron contribution =    -193.53104209 Ry
     hartree contribution      =     109.41376739 Ry
     xc contribution           =     -35.42273870 Ry
     ewald contribution        =    -223.51159115 Ry
     Hubbard energy            =       0.28129682 Ry
 
     Band energy sum           =     -22.09751303 Ry

     total magnetization       =     0.47 Bohr mag/cell
     absolute magnetization    =     0.66 Bohr mag/cell

     convergence has been achieved in  14 iterations

     evp_work_count     :       3004
     num_loc_op_applied :       7393

     Forces acting on atoms (cartesian axes, Ry/au):

     atom    1 type  1   force =     0.00000000    0.00000000    0.00000000
     The non-local contrib.  to forces
     atom    1 type  1   force =     0.00000000    0.00000000    0.00000000
     The ionic contribution  to forces
     atom    1 type  1   force =    -0.00000000   -0.00000000   -0.00000000
     The local contribution  to forces
     atom    1 type  1   force =    -0.00000000   -0.00000000   -0.00000000
     The core correction contribution to forces
     atom    1 type  1   force =    -0.00000000   -0.00000000    0.00000000
     The Hubbard contrib.    to forces
     atom    1 type  1   force =     0.00000000    0.00000000    0.00000000
     The SCF correction term to forces
     atom    1 type  1   force =    -0.00000000    0.00000000   -0.00000000

     Total force =     0.000000     Total SCF correction =     0.000000


     Computing stress (Cartesian axis) and pressure

          total   stress  (Ry/bohr**3)                   (kbar)     P=     -147.84
  -0.00100502  -0.00000000   0.00000000         -147.84       -0.00        0.00
  -0.00000000  -0.00100502  -0.00000000           -0.00     -147.84       -0.00
   0.00000000  -0.00000000  -0.00100502            0.00       -0.00     -147.84

     kinetic stress (kbar)  63075.53     -0.00      0.00
                                0.00  63075.53     -0.00
                               -0.00     -0.00  63075.53

     local   stress (kbar)   7929.93     -0.00     -0.00
                               -0.00   7929.93     -0.00
                               -0.00     -0.00   7929.93

     nonloc. stress (kbar)  33385.32     -0.00     -0.00
                               -0.00  33385.32     -0.00
                               -0.00     -0.00  33385.32

     hartree stress (kbar)  73101.23      0.00      0.00
                                0.00  73101.23      0.00
                                0.00      0.00  73101.23

     exc-cor stress (kbar) -18796.12      0.00     -0.00
                                0.00 -18796.12     -0.00
                               -0.00     -0.00 -18796.12

     corecor stress (kbar)  -3596.88     -0.00      0.00
                               -0.00  -3596.88     -0.00
                               -0.00     -0.00  -3596.88

     ewald   stress (kbar)-149331.95      0.00     -0.00
                                0.00-149331.95      0.00
                               -0.00      0.00-149331.95

     hubbard stress (kbar)  -5914.89      0.00      0.00
                                0.00  -5914.89      0.00
                                0.00      0.00  -5914.89

     DFT-D   stress (kbar)      0.00      0.00      0.00
                                0.00      0.00      0.00
                                0.00      0.00      0.00

     XDM     stress (kbar)      0.00      0.00      0.00
                                0.00      0.00      0.00
                                0.00      0.00      0.00

     dft-nl  stress (kbar)      0.00      0.00      0.00
                                0.00      0.00      0.00
                                0.00      0.00      0.00

     TS-vdW  stress (kbar)      0.00      0.00      0.00
                                0.00      0.00      0.00
                                0.00      0.00      0.00



     Writing output data file ./out/aiida.save/

     init_run     :      1.40s CPU      0.75s WALL (       1 calls)
     electrons    :     27.72s CPU      9.88s WALL (       1 calls)
     forces       :      0.77s CPU      0.22s WALL (       1 calls)
     stress       :      3.22s CPU      1.06s WALL (       1 calls)

     Called by init_run:
     wfcinit      :      0.37s CPU      0.14s WALL (       1 calls)
     wfcinit:atom :      0.01s CPU      0.00s WALL (      16 calls)
     wfcinit:wfcr :      0.31s CPU      0.12s WALL (      16 calls)
     potinit      :      0.13s CPU      0.10s WALL (       1 calls)
     hinit0       :      0.66s CPU      0.38s WALL (       1 calls)

     Called by electrons:
     c_bands      :     11.25s CPU      4.34s WALL (      14 calls)
     sum_band     :      9.70s CPU      2.95s WALL (      14 calls)
     v_of_rho     :      2.91s CPU      0.89s WALL (      15 calls)
     v_h          :      0.05s CPU      0.04s WALL (      15 calls)
     v_xc         :      3.32s CPU      0.97s WALL (      17 calls)
     newd         :      3.39s CPU      1.57s WALL (      15 calls)
     mix_rho      :      0.62s CPU      0.20s WALL (      14 calls)

     Called by c_bands:
     init_us_2    :      0.23s CPU      0.07s WALL (     544 calls)
     cegterg      :     10.87s CPU      4.23s WALL (     224 calls)

     Called by sum_band:
     sum_band:wei :      0.01s CPU      0.00s WALL (      14 calls)
     sum_band:loo :      2.30s CPU      0.97s WALL (      14 calls)
     sum_band:buf :      0.01s CPU      0.00s WALL (     224 calls)
     sum_band:ini :      0.09s CPU      0.03s WALL (     224 calls)
     sum_band:cal :      0.04s CPU      0.01s WALL (     224 calls)
     sum_band:bec :      0.03s CPU      0.02s WALL (     224 calls)
     addusdens    :      7.04s CPU      1.87s WALL (      14 calls)
     addusd:skk   :      0.01s CPU      0.00s WALL (      14 calls)
     addusd:dgemm :      0.73s CPU      0.18s WALL (      28 calls)
     addusd:qvan2 :      5.59s CPU      1.46s WALL (      28 calls)

     Called by *egterg:
     cdiaghg      :      0.40s CPU      0.12s WALL (     701 calls)
     cegterg:over :      0.18s CPU      0.05s WALL (     477 calls)
     cegterg:upda :      0.14s CPU      0.05s WALL (     477 calls)
     cegterg:last :      0.21s CPU      0.08s WALL (     420 calls)
     h_psi        :      9.84s CPU      3.88s WALL (     717 calls)
     s_psi        :      0.11s CPU      0.03s WALL (     765 calls)
     g_psi        :      0.06s CPU      0.03s WALL (     477 calls)

     Called by h_psi:
     h_psi:calbec :      0.12s CPU      0.03s WALL (     717 calls)
     vloc_psi     :      9.43s CPU      3.74s WALL (     717 calls)
     add_vuspsi   :      0.10s CPU      0.03s WALL (     717 calls)
     vhpsi        :      0.10s CPU      0.03s WALL (     717 calls)

     General routines
     calbec       :      0.35s CPU      0.10s WALL (    2954 calls)
     fft          :      1.58s CPU      0.66s WALL (     413 calls)
     ffts         :      0.03s CPU      0.01s WALL (      58 calls)
     fftw         :      7.99s CPU      2.37s WALL (   17698 calls)
     interpolate  :      0.09s CPU      0.07s WALL (      30 calls)
     davcio       :      0.00s CPU      0.00s WALL (      16 calls)

     Parallel routines

     Hubbard U routines
     new_ns       :      0.04s CPU      0.01s WALL (      14 calls)
     new_ns       :      0.04s CPU      0.01s WALL (      14 calls)
     vhpsi        :      0.10s CPU      0.03s WALL (     717 calls)
     force_hub    :      0.06s CPU      0.02s WALL (       1 calls)
     stres_hub    :      0.61s CPU      0.29s WALL (       1 calls)

     PWSCF        :     33.28s CPU     12.06s WALL


   This run was terminated on:  10: 7:11  30Sep2020            

=------------------------------------------------------------------------------=
   JOB DONE.
=------------------------------------------------------------------------------=
Note: The following floating-point exceptions are signalling: IEEE_UNDERFLOW_FLAG IEEE_DENORMAL
