SIRIUS 7.2.0, git hash: eb4c41d310c5c049ae2b9c31aef5c8e9e1880bc2

     Program PWSCF v.6.7GPU starts on 18Mar2021 at 18:31:47 

     This program is part of the open-source Quantum ESPRESSO suite
     for quantum simulation of materials; please cite
         "P. Giannozzi et al., J. Phys.:Condens. Matter 21 395502 (2009);
         "P. Giannozzi et al., J. Phys.:Condens. Matter 29 465901 (2017);
         "P. Giannozzi et al., J. Chem. Phys. 152 154105 (2020);
          URL http://www.quantum-espresso.org", 
     in publications or presentations arising from this work. More details at
     http://www.quantum-espresso.org/quote

     Parallel version (MPI & OpenMP), running on      48 processor cores
     Number of MPI processes:                 4
     Threads/MPI process:                    12

     MPI processes distributed on     4 nodes
     R & G space division:  proc/nbgrp/npool/nimage =       4
     Reading input from pw.in
     Message from routine read_cards :
     DEPRECATED: no units specified in CELL_PARAMETERS card

     Current dimensions of program PWSCF are:
     Max number of different atomic species (ntypx) = 10
     Max number of k-points (npk) =  40000
     Max angular momentum in pseudopotentials (lmaxx) =  3
     Message from routine cell_base_init:
     DEPRECATED: use true lattice parameter, not A to a.u. conversion factor
     Message from routine setup:
     using ibrav=0 with symmetry is DISCOURAGED, use correct ibrav instead

     Subspace diagonalization in iterative solution of the eigenvalue problem:
     one sub-group per band group will be used
     scalapack distributed-memory algorithm (size of sub-group:  2*  2 procs)


     Parallelization info
     --------------------
     sticks:   dense  smooth     PW     G-vecs:    dense   smooth      PW
     Min        5024    1004    275               536366    47933    6901
     Max        5025    1005    276               536367    47934    6904
     Sum       20097    4017   1101              2145465   191735   27609

     Using Slab Decomposition



     bravais-lattice index     =            0
     lattice parameter (alat)  =       1.0000  a.u.
     unit-cell volume          =    8646.7719 (a.u.)^3
     number of atoms/cell      =           64
     number of atomic types    =            2
     number of electrons       =       266.00
     number of Kohn-Sham states=          160
     kinetic-energy cutoff     =      30.0000  Ry
     charge density cutoff     =     600.0000  Ry
     scf convergence threshold =      1.0E-09
     mixing beta               =       0.7000
     number of iterations used =            8  plain     mixing
     Exchange-correlation=  SLA  PW   PBX  PBC
                           (   1   4   3   4   0   0   0)

     celldm(1)=   1.000000  celldm(2)=   0.000000  celldm(3)=   0.000000
     celldm(4)=   0.000000  celldm(5)=   0.000000  celldm(6)=   0.000000

     crystal axes: (cart. coord. in units of alat)
               a(1) = (  20.525071   0.000000   0.000000 )  
               a(2) = (   0.000000  20.525071   0.000000 )  
               a(3) = (   0.000000   0.000000  20.525071 )  

     reciprocal axes: (cart. coord. in units 2 pi/alat)
               b(1) = (  0.048721  0.000000  0.000000 )  
               b(2) = (  0.000000  0.048721  0.000000 )  
               b(3) = (  0.000000  0.000000  0.048721 )  


     PseudoPot. # 1 for Si read from file:
     ./Si.pbe-n-rrkjus_psl.1.0.0.UPF
     MD5 check sum: 0b0bb1205258b0d07b9f9672cf965d36
     Pseudo is Ultrasoft + core correction, Zval =  4.0
     Generated using "atomic" code by A. Dal Corso  v.5.1
     Using radial grid of 1141 points,  6 beta functions with: 
                l(1) =   0
                l(2) =   0
                l(3) =   1
                l(4) =   1
                l(5) =   2
                l(6) =   2
     Q(r) pseudized with 0 coefficients 


     PseudoPot. # 2 for Ge read from file:
     ./ge_pbe_v1.4.uspp.F.UPF
     MD5 check sum: 9c9eaa91e581c3f09632fb3098b2c6b2
     Pseudo is Ultrasoft + core correction, Zval = 14.0
     Generated by new atomic code, or converted to UPF format
     Using radial grid of  873 points,  6 beta functions with: 
                l(1) =   0
                l(2) =   0
                l(3) =   1
                l(4) =   1
                l(5) =   2
                l(6) =   2
     Q(r) pseudized with  8 coefficients,  rinner =    1.400   1.400   1.400
                                                       1.400   1.400

     atomic species   valence    mass     pseudopotential
        Si             4.00    28.08550     Si( 1.00)
        Ge            14.00    72.61000     Ge( 1.00)

     24 Sym. Ops. (no inversion) found



   Cartesian axes

     site n.     atom                  positions (alat units)
         1           Ge  tau(   1) = (   0.0000000   0.0000000   0.0000000  )
         2           Si  tau(   2) = (   0.0000000   0.0000000  10.2625355  )
         3           Si  tau(   3) = (   0.0000000  10.2625355   0.0000000  )
         4           Si  tau(   4) = (   0.0000000  10.2625355  10.2625355  )
         5           Si  tau(   5) = (  10.2625355   0.0000000   0.0000000  )
         6           Si  tau(   6) = (  10.2625355   0.0000000  10.2625355  )
         7           Si  tau(   7) = (  10.2625355  10.2625355   0.0000000  )
         8           Si  tau(   8) = (  10.2625355  10.2625355  10.2625355  )
         9           Si  tau(   9) = (   0.0000000   5.1312678   5.1312678  )
        10           Si  tau(  10) = (   0.0000000   5.1312678  15.3938033  )
        11           Si  tau(  11) = (   0.0000000  15.3938033   5.1312678  )
        12           Si  tau(  12) = (   0.0000000  15.3938033  15.3938033  )
        13           Si  tau(  13) = (  10.2625355   5.1312678   5.1312678  )
        14           Si  tau(  14) = (  10.2625355   5.1312678  15.3938033  )
        15           Si  tau(  15) = (  10.2625355  15.3938033   5.1312678  )
        16           Si  tau(  16) = (  10.2625355  15.3938033  15.3938033  )
        17           Si  tau(  17) = (   5.1312678   0.0000000   5.1312678  )
        18           Si  tau(  18) = (   5.1312678   0.0000000  15.3938033  )
        19           Si  tau(  19) = (   5.1312678  10.2625355   5.1312678  )
        20           Si  tau(  20) = (   5.1312678  10.2625355  15.3938033  )
        21           Si  tau(  21) = (  15.3938033   0.0000000   5.1312678  )
        22           Si  tau(  22) = (  15.3938033   0.0000000  15.3938033  )
        23           Si  tau(  23) = (  15.3938033  10.2625355   5.1312678  )
        24           Si  tau(  24) = (  15.3938033  10.2625355  15.3938033  )
        25           Si  tau(  25) = (   5.1312678   5.1312678   0.0000000  )
        26           Si  tau(  26) = (   5.1312678   5.1312678  10.2625355  )
        27           Si  tau(  27) = (   5.1312678  15.3938033   0.0000000  )
        28           Si  tau(  28) = (   5.1312678  15.3938033  10.2625355  )
        29           Si  tau(  29) = (  15.3938033   5.1312678   0.0000000  )
        30           Si  tau(  30) = (  15.3938033   5.1312678  10.2625355  )
        31           Si  tau(  31) = (  15.3938033  15.3938033   0.0000000  )
        32           Si  tau(  32) = (  15.3938033  15.3938033  10.2625355  )
        33           Si  tau(  33) = (   7.6969016   7.6969016   2.5656339  )
        34           Si  tau(  34) = (   7.6969016   7.6969016  12.8281694  )
        35           Si  tau(  35) = (   7.6969016  17.9594371   2.5656339  )
        36           Si  tau(  36) = (   7.6969016  17.9594371  12.8281694  )
        37           Si  tau(  37) = (  17.9594371   7.6969016   2.5656339  )
        38           Si  tau(  38) = (  17.9594371   7.6969016  12.8281694  )
        39           Si  tau(  39) = (  17.9594371  17.9594371   2.5656339  )
        40           Si  tau(  40) = (  17.9594371  17.9594371  12.8281694  )
        41           Si  tau(  41) = (   7.6969016   2.5656339   7.6969016  )
        42           Si  tau(  42) = (   7.6969016   2.5656339  17.9594371  )
        43           Si  tau(  43) = (   7.6969016  12.8281694   7.6969016  )
        44           Si  tau(  44) = (   7.6969016  12.8281694  17.9594371  )
        45           Si  tau(  45) = (  17.9594371   2.5656339   7.6969016  )
        46           Si  tau(  46) = (  17.9594371   2.5656339  17.9594371  )
        47           Si  tau(  47) = (  17.9594371  12.8281694   7.6969016  )
        48           Si  tau(  48) = (  17.9594371  12.8281694  17.9594371  )
        49           Si  tau(  49) = (   2.5656339   7.6969016   7.6969016  )
        50           Si  tau(  50) = (   2.5656339   7.6969016  17.9594371  )
        51           Si  tau(  51) = (   2.5656339  17.9594371   7.6969016  )
        52           Si  tau(  52) = (   2.5656339  17.9594371  17.9594371  )
        53           Si  tau(  53) = (  12.8281694   7.6969016   7.6969016  )
        54           Si  tau(  54) = (  12.8281694   7.6969016  17.9594371  )
        55           Si  tau(  55) = (  12.8281694  17.9594371   7.6969016  )
        56           Si  tau(  56) = (  12.8281694  17.9594371  17.9594371  )
        57           Si  tau(  57) = (   2.5656339   2.5656339   2.5656339  )
        58           Si  tau(  58) = (   2.5656339   2.5656339  12.8281694  )
        59           Si  tau(  59) = (   2.5656339  12.8281694   2.5656339  )
        60           Si  tau(  60) = (   2.5656339  12.8281694  12.8281694  )
        61           Si  tau(  61) = (  12.8281694   2.5656339   2.5656339  )
        62           Si  tau(  62) = (  12.8281694   2.5656339  12.8281694  )
        63           Si  tau(  63) = (  12.8281694  12.8281694   2.5656339  )
        64           Si  tau(  64) = (  12.8281694  12.8281694  12.8281694  )

     number of k points=     4  Gaussian smearing, width (Ry)=  0.0020
                       cart. coord. in units 2pi/alat
        k(    1) = (   0.0000000   0.0000000   0.0000000), wk =   0.2500000
        k(    2) = (   0.0000000   0.0000000  -0.0243605), wk =   0.7500000
        k(    3) = (   0.0000000  -0.0243605  -0.0243605), wk =   0.7500000
        k(    4) = (  -0.0243605  -0.0243605  -0.0243605), wk =   0.2500000

     Dense  grid:  2145465 G-vectors     FFT dimensions: ( 162, 162, 162)

     Smooth grid:   191735 G-vectors     FFT dimensions: (  72,  72,  72)

     Estimated max dynamical RAM per process >       3.47 GB

     Estimated total dynamical RAM >      13.86 GB

     Initial potential from superposition of free atoms

     starting charge  265.96390, renormalised to  266.00000
     Starting wfcs are  261 randomized atomic wfcs

     total cpu time spent up to now is        7.0 secs

     per-process dynamical memory:  1189.5 Mb

     Self-consistent Calculation

     iteration #  1     ecut=    30.00 Ry     beta= 0.70
     Davidson diagonalization with overlap
     ethr =  1.00E-02,  avg # of iterations =  3.5

     Threshold (ethr) on eigenvalues was too large:
     Diagonalizing with lowered threshold

     Davidson diagonalization with overlap
     ethr =  6.00E-04,  avg # of iterations =  2.0

     total cpu time spent up to now is       23.8 secs

     total energy              =    -932.97712545 Ry
     estimated scf accuracy    <       1.74019583 Ry
 
     Band energy sum           =       1.09482331 Ry

     iteration #  2     ecut=    30.00 Ry     beta= 0.70
     Davidson diagonalization with overlap
     ethr =  6.54E-04,  avg # of iterations =  1.0

     total cpu time spent up to now is       31.6 secs

     total energy              =    -933.04103310 Ry
     estimated scf accuracy    <       0.08549520 Ry
 
     Band energy sum           =       7.79242273 Ry

     iteration #  3     ecut=    30.00 Ry     beta= 0.70
     Davidson diagonalization with overlap
     ethr =  3.21E-05,  avg # of iterations =  9.2

     total cpu time spent up to now is       45.5 secs

     total energy              =    -933.05348654 Ry
     estimated scf accuracy    <       0.01453125 Ry
 
     Band energy sum           =       9.72905108 Ry

     iteration #  4     ecut=    30.00 Ry     beta= 0.70
     Davidson diagonalization with overlap
     c_bands:  1 eigenvalues not converged
     c_bands:  1 eigenvalues not converged
     ethr =  5.46E-06,  avg # of iterations = 22.5

     total cpu time spent up to now is       62.4 secs

     total energy              =    -933.05611764 Ry
     estimated scf accuracy    <       0.02333457 Ry
 
     Band energy sum           =       9.07447710 Ry

     iteration #  5     ecut=    30.00 Ry     beta= 0.70
     Davidson diagonalization with overlap
     ethr =  5.46E-06,  avg # of iterations =  7.2

     total cpu time spent up to now is       74.9 secs

     total energy              =    -933.05944523 Ry
     estimated scf accuracy    <       0.00161263 Ry
 
     Band energy sum           =       8.98245149 Ry

     iteration #  6     ecut=    30.00 Ry     beta= 0.70
     Davidson diagonalization with overlap
     ethr =  6.06E-07,  avg # of iterations =  4.0

     total cpu time spent up to now is       85.9 secs

     total energy              =    -933.05991069 Ry
     estimated scf accuracy    <       0.00027013 Ry
 
     Band energy sum           =       9.06855833 Ry

     iteration #  7     ecut=    30.00 Ry     beta= 0.70
     Davidson diagonalization with overlap
     ethr =  1.02E-07,  avg # of iterations =  2.0

     total cpu time spent up to now is       94.0 secs

     total energy              =    -933.05992043 Ry
     estimated scf accuracy    <       0.00007362 Ry
 
     Band energy sum           =       9.09957797 Ry

     iteration #  8     ecut=    30.00 Ry     beta= 0.70
     Davidson diagonalization with overlap
     ethr =  2.77E-08,  avg # of iterations =  4.0

     total cpu time spent up to now is      102.6 secs

     total energy              =    -933.05993081 Ry
     estimated scf accuracy    <       0.00000395 Ry
 
     Band energy sum           =       9.10164559 Ry

     iteration #  9     ecut=    30.00 Ry     beta= 0.70
     Davidson diagonalization with overlap
     ethr =  1.48E-09,  avg # of iterations =  5.0

     total cpu time spent up to now is      113.4 secs

     total energy              =    -933.05993419 Ry
     estimated scf accuracy    <       0.00000379 Ry
 
     Band energy sum           =       9.10094370 Ry

     iteration # 10     ecut=    30.00 Ry     beta= 0.70
     Davidson diagonalization with overlap
     ethr =  1.43E-09,  avg # of iterations =  1.5

     total cpu time spent up to now is      121.3 secs

     total energy              =    -933.05993399 Ry
     estimated scf accuracy    <       0.00000117 Ry
 
     Band energy sum           =       9.10231979 Ry

     iteration # 11     ecut=    30.00 Ry     beta= 0.70
     Davidson diagonalization with overlap
     ethr =  4.39E-10,  avg # of iterations =  4.0

     total cpu time spent up to now is      130.1 secs

     total energy              =    -933.05993424 Ry
     estimated scf accuracy    <       0.00000001 Ry
 
     Band energy sum           =       9.10288713 Ry

     iteration # 12     ecut=    30.00 Ry     beta= 0.70
     Davidson diagonalization with overlap
     ethr =  4.87E-12,  avg # of iterations =  5.8

     total cpu time spent up to now is      141.6 secs

     total energy              =    -933.05993425 Ry
     estimated scf accuracy    <       0.00000003 Ry
 
     Band energy sum           =       9.10249449 Ry

     iteration # 13     ecut=    30.00 Ry     beta= 0.70
     Davidson diagonalization with overlap
     ethr =  4.87E-12,  avg # of iterations =  2.2

     total cpu time spent up to now is      149.7 secs

     total energy              =    -933.05993425 Ry
     estimated scf accuracy    <          7.3E-09 Ry
 
     Band energy sum           =       9.10245856 Ry

     iteration # 14     ecut=    30.00 Ry     beta= 0.70
     Davidson diagonalization with overlap
     ethr =  2.75E-12,  avg # of iterations =  4.0

     total cpu time spent up to now is      158.5 secs

     total energy              =    -933.05993425 Ry
     estimated scf accuracy    <          1.1E-09 Ry
 
     Band energy sum           =       9.10235321 Ry

     iteration # 15     ecut=    30.00 Ry     beta= 0.70
     Davidson diagonalization with overlap
     ethr =  4.28E-13,  avg # of iterations =  2.0

     total cpu time spent up to now is      166.5 secs

     End of self-consistent calculation

          k = 0.0000 0.0000 0.0000 ( 23871 PWs)   bands (ev):

   -17.9788 -17.9788 -17.9788 -17.9497 -17.9497  -5.7327  -4.7812  -4.6246
    -4.6246  -4.6246  -4.6224  -4.6224  -3.8976  -3.6656  -3.6656  -3.6656
    -3.6610  -3.6610  -3.6610  -3.6610  -3.6610  -3.6610  -3.6607  -3.6607
    -3.4146  -3.3739  -3.3739  -3.3739  -1.7251  -1.5636  -1.5636  -1.5636
    -1.5608  -1.5608  -1.4816  -1.4003  -1.4003  -1.4003  -1.3977  -1.3977
    -1.3977  -1.3966  -1.3966  -1.3966  -1.3965  -1.3965  -0.7345  -0.7181
    -0.7181  -0.7181   0.6638   0.7721   0.7721   0.7721   0.7749   0.7749
     0.7749   0.7760   0.7760   0.7782   0.7782   0.7782   2.3961   2.3961
     2.3961   2.4034   2.4034   2.4034   2.4041   2.4041   2.4041   2.4044
     2.4064   2.4064   2.4909   2.4971   2.4971   2.4971   2.5039   2.5039
     2.5039   2.5056   2.5056   2.5067   2.5067   2.5067   2.6860   2.7393
     2.7393   2.7434   2.7434   2.7434   3.4015   3.4015   3.4015   3.4034
     3.4034   3.4034   4.3646   4.3646   4.3646   4.3647   4.3647   4.3647
     4.3670   4.3670   4.3670   4.3764   4.3764   4.3764   4.9265   4.9265
     4.9265   4.9291   4.9291   4.9291   4.9291   4.9321   4.9321   4.9385
     4.9385   4.9385   5.0556   5.0556   5.0556   5.0590   5.0590   5.0671
     5.0671   5.0671   6.2663   6.2663   6.2663   6.9476   6.9803   6.9803
     6.9803   6.9810   6.9810   7.3687   7.3930   7.3930   7.4011   7.4011
     7.4011   7.7474   7.8033   7.8033   7.8033   8.6605   8.7058   8.7067
     8.7069   8.7116   8.7154   8.7233   8.7307   8.8231   8.8254   8.8287

          k = 0.0000 0.0000-0.0244 ( 23980 PWs)   bands (ev):

   -17.9801 -17.9799 -17.9799 -17.9505 -17.9501  -5.4884  -5.4318  -4.5686
    -4.3788  -4.3788  -4.3770  -4.3758  -4.3751  -4.3751  -4.3742  -3.6868
    -3.5345  -3.5345  -3.5321  -3.5312  -3.5311  -3.5311  -3.5309  -3.3316
    -3.3135  -2.7047  -2.5932  -2.5887  -2.5887  -2.5881  -2.5881  -2.5878
    -2.5873  -1.5898  -1.4877  -1.4877  -1.4833  -1.4828  -1.4824  -1.4824
    -1.4824  -0.4208  -0.3164  -0.3164  -0.3135  -0.3135  -0.3131  -0.3129
    -0.3128  -0.1583  -0.1296  -0.1276  -0.1276  -0.1216  -0.1212  -0.1206
    -0.1206   0.4915   0.5104   1.8969   1.9646   1.9646   1.9658   1.9663
     1.9689   1.9709   1.9709   2.0237   2.0237   2.0246   2.0284   2.0290
     2.0290   2.0293   2.0309   2.8350   2.8350   2.8364   2.8379   2.8391
     2.8407   2.8407   2.8424   3.5371   3.5395   3.5422   3.5422   3.5423
     3.5453   3.5491   3.5491   3.6464   3.6464   3.6510   3.6510   3.6710
     3.6713   3.6714   3.6714   3.6731   3.6747   3.6747   3.6756   3.7798
     3.7927   3.7927   3.7949   3.7964   3.7978   3.7978   3.8010   4.8248
     4.8277   4.8277   4.8288   4.8319   4.8319   4.8325   4.8435   4.9118
     4.9350   4.9873   4.9914   4.9914   4.9916   4.9916   4.9942   5.0008
     5.0008   5.4503   5.4503   5.4610   5.4610   6.8719   6.8859   7.8041
     7.8086   8.2123   8.2288   8.2309   8.2309   8.2343   8.2498   8.2520
     8.2520   8.2691   8.2816   8.5664   8.6162   8.6162   8.6188   8.6214
     8.6219   8.6219   8.6609   8.7040   8.7058   8.7082   8.7087   8.7088

          k = 0.0000-0.0244-0.0244 ( 23980 PWs)   bands (ev):

   -17.9798 -17.9794 -17.9794 -17.9510 -17.9509  -5.2736  -5.1650  -5.1650
    -5.1637  -4.3259  -4.1543  -4.1492  -4.1492  -4.1480  -4.1480  -4.1479
    -4.1476  -3.2865  -3.1175  -3.1175  -3.1118  -3.1118  -3.1117  -3.1115
    -3.1115  -2.9194  -2.8374  -2.8374  -2.8353  -2.8351  -2.8348  -2.8344
    -2.8344  -2.0284  -1.9766  -1.9752  -1.9752  -1.0262  -0.9757  -0.9709
    -0.9709  -0.5967  -0.5374  -0.5374  -0.5355  -0.5310  -0.5305  -0.5301
    -0.5301   0.2039   0.2903   0.2914   0.2914   0.2915   0.2915   0.2918
     0.2918   0.9211   0.9664   0.9664   0.9678   0.9709   0.9723   0.9723
     0.9753   1.9513   1.9513   1.9520   1.9560   2.7875   2.8032   2.8039
     2.8039   2.8052   2.8088   2.8092   2.8092   2.8896   2.8896   2.8922
     2.8927   2.8950   2.8950   2.8951   2.8951   3.4935   3.4948   3.4962
     3.4962   3.4988   3.4989   3.4989   3.4994   3.5477   3.5712   3.5784
     3.5784   3.8300   3.8300   3.8308   3.8324   4.0943   4.0943   4.0976
     4.0981   4.0987   4.0987   4.1017   4.1039   4.4053   4.4224   4.4226
     4.4226   4.4244   4.4253   4.4253   4.4341   4.6269   4.6281   4.6281
     4.6412   4.6679   4.6682   4.6682   4.6700   4.6701   4.6715   4.6803
     4.6803   5.9644   5.9654   5.9774   5.9774   7.4631   7.4631   7.4649
     7.4847   8.1857   8.2043   8.2070   8.2070   8.2129   8.2211   8.2294
     8.2294   8.4870   8.5038   8.5051   8.5051   8.5061   8.5106   8.5106
     8.5487   8.8992   8.9059   8.9077   8.9084   8.9234   8.9256   8.9379

          k =-0.0244-0.0244-0.0244 ( 23984 PWs)   bands (ev):

   -17.9794 -17.9794 -17.9794 -17.9509 -17.9509  -5.0995  -4.9070  -4.9070
    -4.9070  -4.9047  -4.9042  -4.9042  -4.9042  -3.3854  -2.9959  -2.9959
    -2.9959  -2.9877  -2.9877  -2.9876  -2.9876  -2.9876  -2.9871  -2.9871
    -2.9871  -2.9870  -2.9870  -2.9870  -2.9869  -2.9862  -2.9862  -2.9862
    -2.9861  -2.9861  -2.9859  -2.9859  -2.9859  -0.3641  -0.1387  -0.1387
    -0.1387  -0.1278  -0.1278  -0.1278  -0.1271  -0.1271  -0.1270  -0.1270
    -0.1270  -0.1270  -0.1268  -0.1268  -0.1268  -0.1262  -0.1262  -0.1257
    -0.1257  -0.1257  -0.1250  -0.1250  -0.1250   2.2799   2.3262   2.3262
     2.3262   2.3284   2.3337   2.3337   2.3337   2.6894   2.7117   2.7117
     2.7117   2.7212   2.7212   2.7212   2.7220   2.7220   2.7220   2.7223
     2.7223   2.7223   2.7224   2.7224   2.7224   2.7224   2.7224   2.7228
     2.7269   2.7269   2.7276   2.7276   2.7276   4.0440   4.0440   4.0440
     4.0491   4.0491   4.0491   4.0504   4.0504   4.0504   4.0512   4.0515
     4.0515   4.0515   4.0521   4.0521   4.0522   4.0522   4.0522   4.0522
     4.0538   4.0538   4.0607   4.0607   4.0607   5.4954   5.4954   5.4954
     5.4968   5.4968   5.4971   5.4971   5.4971   5.4976   5.4976   5.4976
     5.4987   5.4987   5.5232   5.5232   5.5232   7.6931   7.7754   7.7754
     7.7754   7.7775   7.7789   7.7789   7.7789   7.7793   7.7793   7.7795
     7.7795   7.7795   7.7800   7.7800   7.7800   7.7809   7.7809   7.7809
     7.8231   7.8231   7.8231   7.8282   7.8282   8.2183   8.2814   8.2861

     the Fermi energy is     6.6354 ev

!    total energy              =    -933.05993425 Ry
     estimated scf accuracy    <          2.8E-10 Ry
     smearing contrib. (-TS)   =      -0.00000000 Ry
     internal energy E=F+TS    =    -933.05993425 Ry

     The total energy is F=E-TS. E is the sum of the following terms:
     one-electron contribution =     -44.53855520 Ry
     hartree contribution      =     150.89722421 Ry
     xc contribution           =    -446.10616944 Ry
     ewald contribution        =    -593.31243382 Ry
 
     Band energy sum           =       9.10236724 Ry

     convergence has been achieved in  15 iterations

     evp_work_count     :       1478
     num_loc_op_applied :      28405

     Forces acting on atoms (cartesian axes, Ry/au):

     atom    1 type  2   force =     0.00000000    0.00000000    0.00000000
     atom    2 type  1   force =     0.00000000    0.00000000    0.00000000
     atom    3 type  1   force =     0.00000000    0.00000000    0.00000000
     atom    4 type  1   force =     0.00000000    0.00000000    0.00000000
     atom    5 type  1   force =     0.00000000    0.00000000    0.00000000
     atom    6 type  1   force =     0.00000000    0.00000000    0.00000000
     atom    7 type  1   force =     0.00000000    0.00000000    0.00000000
     atom    8 type  1   force =     0.00000000    0.00000000    0.00000000
     atom    9 type  1   force =     0.00046950   -0.00002733   -0.00002733
     atom   10 type  1   force =    -0.00046950   -0.00002733    0.00002733
     atom   11 type  1   force =    -0.00046950    0.00002733   -0.00002733
     atom   12 type  1   force =     0.00046950    0.00002733    0.00002733
     atom   13 type  1   force =    -0.00003648    0.00002985    0.00002985
     atom   14 type  1   force =     0.00003648    0.00002985   -0.00002985
     atom   15 type  1   force =     0.00003648   -0.00002985    0.00002985
     atom   16 type  1   force =    -0.00003648   -0.00002985   -0.00002985
     atom   17 type  1   force =    -0.00002733    0.00046950   -0.00002733
     atom   18 type  1   force =    -0.00002733   -0.00046950    0.00002733
     atom   19 type  1   force =     0.00002985   -0.00003648    0.00002985
     atom   20 type  1   force =     0.00002985    0.00003648   -0.00002985
     atom   21 type  1   force =     0.00002733   -0.00046950   -0.00002733
     atom   22 type  1   force =     0.00002733    0.00046950    0.00002733
     atom   23 type  1   force =    -0.00002985    0.00003648    0.00002985
     atom   24 type  1   force =    -0.00002985   -0.00003648   -0.00002985
     atom   25 type  1   force =    -0.00002733   -0.00002733    0.00046950
     atom   26 type  1   force =     0.00002985    0.00002985   -0.00003648
     atom   27 type  1   force =    -0.00002733    0.00002733   -0.00046950
     atom   28 type  1   force =     0.00002985   -0.00002985    0.00003648
     atom   29 type  1   force =     0.00002733   -0.00002733   -0.00046950
     atom   30 type  1   force =    -0.00002985    0.00002985    0.00003648
     atom   31 type  1   force =     0.00002733    0.00002733    0.00046950
     atom   32 type  1   force =    -0.00002985   -0.00002985   -0.00003648
     atom   33 type  1   force =     0.00003285    0.00003285   -0.00006770
     atom   34 type  1   force =    -0.00002040   -0.00002040    0.00002040
     atom   35 type  1   force =     0.00000086    0.00001045   -0.00001045
     atom   36 type  1   force =     0.00003285    0.00006770   -0.00003285
     atom   37 type  1   force =     0.00001045    0.00000086   -0.00001045
     atom   38 type  1   force =     0.00006770    0.00003285   -0.00003285
     atom   39 type  1   force =    -0.01100831   -0.01100831    0.01100831
     atom   40 type  1   force =     0.00001045    0.00001045   -0.00000086
     atom   41 type  1   force =     0.00003285   -0.00006770    0.00003285
     atom   42 type  1   force =     0.00000086   -0.00001045    0.00001045
     atom   43 type  1   force =    -0.00002040    0.00002040   -0.00002040
     atom   44 type  1   force =     0.00003285   -0.00003285    0.00006770
     atom   45 type  1   force =     0.00001045   -0.00001045    0.00000086
     atom   46 type  1   force =    -0.01100831    0.01100831   -0.01100831
     atom   47 type  1   force =     0.00006770   -0.00003285    0.00003285
     atom   48 type  1   force =     0.00001045   -0.00000086    0.00001045
     atom   49 type  1   force =    -0.00006770    0.00003285    0.00003285
     atom   50 type  1   force =    -0.00001045    0.00000086    0.00001045
     atom   51 type  1   force =    -0.00001045    0.00001045    0.00000086
     atom   52 type  1   force =     0.01100831   -0.01100831   -0.01100831
     atom   53 type  1   force =     0.00002040   -0.00002040   -0.00002040
     atom   54 type  1   force =    -0.00003285    0.00003285    0.00006770
     atom   55 type  1   force =    -0.00003285    0.00006770    0.00003285
     atom   56 type  1   force =    -0.00000086    0.00001045    0.00001045
     atom   57 type  1   force =     0.01100831    0.01100831    0.01100831
     atom   58 type  1   force =    -0.00001045   -0.00001045   -0.00000086
     atom   59 type  1   force =    -0.00001045   -0.00000086   -0.00001045
     atom   60 type  1   force =    -0.00006770   -0.00003285   -0.00003285
     atom   61 type  1   force =    -0.00000086   -0.00001045   -0.00001045
     atom   62 type  1   force =    -0.00003285   -0.00006770   -0.00003285
     atom   63 type  1   force =    -0.00003285   -0.00003285   -0.00006770
     atom   64 type  1   force =     0.00002040    0.00002040    0.00002040

     Total force =     0.038170     Total SCF correction =     0.000035


     Computing stress (Cartesian axis) and pressure

          total   stress  (Ry/bohr**3)                   (kbar)     P=       19.16
   0.00013023   0.00000000   0.00000000           19.16        0.00        0.00
   0.00000000   0.00013023   0.00000000            0.00       19.16        0.00
   0.00000000   0.00000000   0.00013023            0.00        0.00       19.16


     Writing output data file ./scf_.save/

     init_run     :     29.45s CPU      6.57s WALL (       1 calls)
     electrons    :   1137.44s CPU    159.89s WALL (       1 calls)
     forces       :     18.32s CPU      3.96s WALL (       1 calls)
     stress       :    198.23s CPU     39.64s WALL (       1 calls)

     Called by init_run:
     wfcinit      :     23.44s CPU      2.82s WALL (       1 calls)
     potinit      :      1.42s CPU      0.37s WALL (       1 calls)
     hinit0       :      1.05s CPU      0.55s WALL (       1 calls)

     Called by electrons:
     c_bands      :    851.37s CPU     87.70s WALL (      16 calls)
     sum_band     :    225.13s CPU     35.58s WALL (      16 calls)
     v_of_rho     :     17.29s CPU      4.54s WALL (      16 calls)
     newd         :     43.89s CPU     33.14s WALL (      16 calls)
     mix_rho      :      2.55s CPU      0.64s WALL (      16 calls)

     Called by c_bands:
     init_us_2    :      2.36s CPU      2.39s WALL (     140 calls)
     cegterg      :    837.50s CPU     85.08s WALL (      65 calls)

     Called by *egterg:
     cdiaghg      :    366.72s CPU     45.40s WALL (     381 calls)
     h_psi        :    359.70s CPU     30.94s WALL (     389 calls)
     s_psi        :     56.69s CPU      4.80s WALL (     389 calls)
     g_psi        :      0.87s CPU      0.09s WALL (     320 calls)

     Called by h_psi:
     h_psi:calbec :     56.78s CPU      4.63s WALL (     389 calls)
     vloc_psi     :    248.62s CPU     21.40s WALL (     389 calls)
     add_vuspsi   :     53.91s CPU      4.77s WALL (     389 calls)

     General routines
     calbec       :     82.39s CPU      6.76s WALL (     473 calls)
     fft          :      8.22s CPU      2.62s WALL (     232 calls)
     ffts         :      0.26s CPU      0.03s WALL (      32 calls)
     fftw         :    280.99s CPU     24.16s WALL (   67050 calls)
     interpolate  :      0.74s CPU      0.19s WALL (      16 calls)

     Parallel routines

     PWSCF        :  23m 3.97s CPU   3m32.09s WALL


   This run was terminated on:  18:35:19  18Mar2021            

=------------------------------------------------------------------------------=
   JOB DONE.
=------------------------------------------------------------------------------=
============================================================================================================================
                                             #         Total          %     Self %        Median           Min           Max
----------------------------------------------------------------------------------------------------------------------------
sirius                                       1     213.31 s      100.00       0.00     213.31 s      213.31 s      213.31 s 
├ sirius::initialize                         1       1.09 s        0.51     100.00       1.09 s        1.09 s        1.09 s 
├ PWSCF                                      1     212.09 s       99.43       0.18     212.09 s      212.09 s      212.09 s 
│ ├ qe|setup                                 1      33.24 ms       0.02     100.00      33.24 ms      33.24 ms      33.24 ms
│ ├ init_run                                 1       6.57 s        3.08      11.16       6.57 s        6.57 s        6.57 s 
│ │ ├ hinit0                                 1     550.13 ms       0.26      11.20     550.13 ms     550.13 ms     550.13 ms
│ │ │ ├ init_vloc                            1     124.46 ms       0.06     100.00     124.46 ms     124.46 ms     124.46 ms
│ │ │ ├ init_us_1                            1     299.65 ms       0.14     100.00     299.65 ms     299.65 ms     299.65 ms
│ │ │ ├ init_at_1                            1      13.88 ms       0.01     100.00      13.88 ms      13.88 ms      13.88 ms
│ │ │ ├ qe|setlocal                          1      38.88 ms       0.02      44.01      38.88 ms      38.88 ms      38.88 ms
│ │ │ │ └ fft                                1      21.77 ms       0.01      52.19      21.77 ms      21.77 ms      21.77 ms
│ │ │ │   └ fft_scatter                      1      10.41 ms       0.00     100.00      10.41 ms      10.41 ms      10.41 ms
│ │ │ └ fft                                  1      11.63 ms       0.01      16.32      11.63 ms      11.63 ms      11.63 ms
│ │ │   └ fft_scatter                        1       9.73 ms       0.00     100.00       9.73 ms       9.73 ms       9.73 ms
│ │ ├ potinit                                1     370.50 ms       0.17       7.79     370.50 ms     370.50 ms     370.50 ms
│ │ │ ├ qe|paw_becsum                        1     849.00 ns       0.00     100.00     849.00 ns     849.00 ns     849.00 ns
│ │ │ ├ fft                                  1      12.62 ms       0.01      15.05      12.62 ms      12.62 ms      12.62 ms
│ │ │ │ └ fft_scatter                        1      10.72 ms       0.01     100.00      10.72 ms      10.72 ms      10.72 ms
│ │ │ ├ v_of_rho                             1     313.09 ms       0.15       0.01     313.09 ms     313.09 ms     313.09 ms
│ │ │ │ ├ v_xc                               1     283.54 ms       0.13      73.15     283.54 ms     283.54 ms     283.54 ms
│ │ │ │ │ └ fft                              7      76.14 ms       0.04      14.53       9.47 ms       7.92 ms      17.67 ms
│ │ │ │ │   └ fft_scatter                    7      65.07 ms       0.03     100.00       7.98 ms       6.41 ms      16.04 ms
│ │ │ │ └ v_h                                1      29.52 ms       0.01      43.81      29.52 ms      29.52 ms      29.52 ms
│ │ │ │   └ fft                              1      16.58 ms       0.01       9.70      16.58 ms      16.58 ms      16.58 ms
│ │ │ │     └ fft_scatter                    1      14.98 ms       0.01     100.00      14.98 ms      14.98 ms      14.98 ms
│ │ │ ├ qe|paw_potential                     1     291.00 ns       0.00     100.00     291.00 ns     291.00 ns     291.00 ns
│ │ │ └ qe|set_vrs                           1      15.94 ms       0.01      24.12      15.94 ms      15.94 ms      15.94 ms
│ │ │   └ interpolate                        1      12.10 ms       0.01      18.66      12.10 ms      12.10 ms      12.10 ms
│ │ │     ├ fft                              1       8.63 ms       0.00      16.23       8.63 ms       8.63 ms       8.63 ms
│ │ │     │ └ fft_scatter                    1       7.23 ms       0.00     100.00       7.23 ms       7.23 ms       7.23 ms
│ │ │     └ ffts                             1       1.21 ms       0.00      17.09       1.21 ms       1.21 ms       1.21 ms
│ │ │       └ fft_scatter                    1       1.00 ms       0.00     100.00       1.00 ms       1.00 ms       1.00 ms
│ │ ├ newd                                   1       2.09 s        0.98      99.02       2.09 s        2.09 s        2.09 s 
│ │ │ └ fft                                  1      20.54 ms       0.01       7.86      20.54 ms      20.54 ms      20.54 ms
│ │ │   └ fft_scatter                        1      18.92 ms       0.01     100.00      18.92 ms      18.92 ms      18.92 ms
│ │ └ wfcinit                                1       2.82 s        1.32      10.16       2.82 s        2.82 s        2.82 s 
│ │   ├ init_us_2                            4     101.29 ms       0.05     100.00      17.44 ms      17.27 ms      49.14 ms
│ │   ├ wfcinit:atomic                       4      33.73 ms       0.02       0.10       8.45 ms       8.34 ms       8.49 ms
│ │   │ └ atomic_wfc                         4      33.70 ms       0.02     100.00       8.44 ms       8.33 ms       8.49 ms
│ │   └ wfcinit:wfcrot                       4       2.40 s        1.13       0.00     597.12 ms     580.21 ms     626.24 ms
│ │     └ wfcrot                             4       2.40 s        1.13       0.00     597.11 ms     580.20 ms     626.23 ms
│ │       └ protwfck                         4       2.40 s        1.13       1.06     597.10 ms     580.20 ms     626.22 ms
│ │         ├ protwfck:hpsi                  4       1.10 s        0.52       0.00     273.13 ms     265.06 ms     292.24 ms
│ │         │ └ h_psi_bgrp                   4       1.10 s        0.52       0.00     273.13 ms     265.06 ms     292.23 ms
│ │         │   └ h_psi                      4       1.10 s        0.52       0.44     273.13 ms     265.05 ms     292.23 ms
│ │         │     └ h_psi:pot                4       1.10 s        0.52       0.01     271.90 ms     263.86 ms     291.02 ms
│ │         │       ├ vloc_psi               4     785.69 ms       0.37       6.17     194.28 ms     184.73 ms     212.39 ms
│ │         │       │ └ fftw              2088     737.18 ms       0.35      29.06     368.85 us     251.90 us       6.81 ms
│ │         │       │   └ fft_scatter     2088     522.93 ms       0.25     100.00     269.74 us     147.14 us       6.57 ms
│ │         │       ├ h_psi:calbec           4     159.10 ms       0.07       0.02      39.91 ms      37.75 ms      41.52 ms
│ │         │       │ └ calbec               4     159.06 ms       0.07     100.00      39.90 ms      37.74 ms      41.51 ms
│ │         │       └ add_vuspsi             4     153.81 ms       0.07     100.00      38.25 ms      37.94 ms      39.37 ms
│ │         ├ protwfck:hc                    4     226.76 ms       0.11      30.24      56.52 ms      55.35 ms      58.37 ms
│ │         │ └ s_psi_bgrp                   4     158.18 ms       0.07       3.01      39.61 ms      39.10 ms      39.86 ms
│ │         │   └ s_psi                      4     153.42 ms       0.07     100.00      38.42 ms      37.90 ms      38.68 ms
│ │         ├ protwfck:diag                  4       1.00 s        0.47       0.00     241.27 ms     238.84 ms     282.63 ms
│ │         │ └ cdiaghg                      4       1.00 s        0.47      91.71     241.27 ms     238.84 ms     282.62 ms
│ │         │   ├ cdiaghg:choldc             4      42.74 ms       0.02     100.00       1.33 ms       1.28 ms      38.82 ms
│ │         │   ├ cdiaghg:inversion          4       3.13 ms       0.00     100.00     763.78 us     736.99 us     866.68 us
│ │         │   └ cdiaghg:paragemm           8      37.33 ms       0.02     100.00       3.09 ms       2.20 ms      12.95 ms
│ │         └ protwfck:evc                   4      40.94 ms       0.02     100.00       8.97 ms       8.13 ms      14.88 ms
│ ├ electrons                                1     159.89 s       74.96       0.33     159.89 s      159.89 s      159.89 s 
│ │ ├ c_bands                               16      87.70 s       41.11       1.75       4.14 s        3.09 s       12.26 s 
│ │ │ ├ init_us_2                           64       1.08 s        0.51     100.00      16.99 ms      16.15 ms      17.44 ms
│ │ │ └ cegterg                             65      85.08 s       39.89       0.82     999.05 ms     720.29 ms       4.50 s 
│ │ │   ├ h_psi_bgrp                       385      29.84 s       13.99       0.01      46.26 ms       6.14 ms     196.06 ms
│ │ │   │ └ h_psi                          385      29.83 s       13.99       0.43      46.25 ms       6.13 ms     196.06 ms
│ │ │   │   └ h_psi:pot                    385      29.71 s       13.93       0.02      46.18 ms       6.10 ms     195.14 ms
│ │ │   │     ├ vloc_psi                   385      20.61 s        9.66       6.20      31.37 ms       2.27 ms     142.87 ms
│ │ │   │     │ └ fftw                   54722      19.34 s        9.06      29.36     366.56 us     247.67 us       4.37 ms
│ │ │   │     │   └ fft_scatter          54722      13.66 s        6.40     100.00     268.25 us     142.22 us       4.19 ms
│ │ │   │     ├ h_psi:calbec               385       4.47 s        2.10       0.08       5.77 ms       1.96 ms      30.02 ms
│ │ │   │     │ └ calbec                   385       4.47 s        2.09     100.00       5.76 ms       1.95 ms      30.01 ms
│ │ │   │     └ add_vuspsi                 385       4.62 s        2.16     100.00       7.40 ms       1.78 ms      26.14 ms
│ │ │   ├ s_psi_bgrp                       385       4.78 s        2.24       2.86       7.46 ms       1.85 ms      26.79 ms
│ │ │   │ └ s_psi                          385       4.64 s        2.18     100.00       7.33 ms       1.83 ms      26.00 ms
│ │ │   ├ cegterg:init                      65     406.97 ms       0.19     100.00       5.91 ms       5.59 ms      11.51 ms
│ │ │   ├ cegterg:update                   320       1.02 s        0.48     100.00       2.27 ms     648.68 us       8.39 ms
│ │ │   ├ g_psi                            320      91.62 ms       0.04     100.00      91.74 us       9.01 us     898.89 us
│ │ │   ├ cegterg:overlap                  320       1.76 s        0.82     100.00       2.27 ms     801.69 us      22.94 ms
│ │ │   ├ cegterg:diag                     377      44.40 s       20.81       0.00      25.27 ms      10.66 ms     312.22 ms
│ │ │   │ └ cdiaghg                        377      44.40 s       20.81      94.62      25.27 ms      10.65 ms     312.21 ms
│ │ │   │   ├ cdiaghg:choldc               377     515.26 ms       0.24     100.00       1.11 ms     614.80 us       4.52 ms
│ │ │   │   ├ cdiaghg:inversion            377     278.98 ms       0.13     100.00     502.60 us     119.13 us       2.11 ms
│ │ │   │   └ cdiaghg:paragemm             754       1.59 s        0.75     100.00       1.21 ms     241.05 us      46.83 ms
│ │ │   └ cegterg:last                     143       2.10 s        0.98     100.00      21.51 ms       3.16 ms      28.05 ms
│ │ ├ sum_band                              16      35.58 s       16.68       0.17       2.22 s        2.16 s        2.27 s 
│ │ │ ├ sum_band:weights                    16       1.26 ms       0.00     100.00      78.38 us      67.65 us      86.34 us
│ │ │ ├ sum_band:loop                       16       7.28 s        3.41       4.71     451.43 ms     437.06 ms     483.03 ms
│ │ │ │ ├ sum_band:buffer                   64     148.97 ms       0.07     100.00       2.32 ms       2.25 ms       2.43 ms
│ │ │ │ ├ sum_band:init_us_2                64       1.07 s        0.50       0.07      16.62 ms      16.29 ms      17.68 ms
│ │ │ │ │ └ init_us_2                       64       1.07 s        0.50     100.00      16.61 ms      16.27 ms      17.66 ms
│ │ │ │ ├ fftw                           10240       4.08 s        1.91      25.66     379.85 us     360.41 us       3.87 ms
│ │ │ │ │ └ fft_scatter                  10240       3.03 s        1.42     100.00     278.27 us     259.79 us       3.69 ms
│ │ │ │ ├ sum_band:calbec                   64       1.57 s        0.74       0.04      24.63 ms      22.97 ms      29.25 ms
│ │ │ │ │ └ calbec                          64       1.57 s        0.73     100.00      24.62 ms      22.96 ms      29.24 ms
│ │ │ │ └ sum_band:becsum                   64      68.99 ms       0.03     100.00       1.07 ms     947.77 us       1.33 ms
│ │ │ ├ ffts                                16      14.21 ms       0.01      21.66     864.92 us     820.29 us     988.07 us
│ │ │ │ └ fft_scatter                       16      11.13 ms       0.01     100.00     672.00 us     627.13 us     804.78 us
│ │ │ ├ addusdens                           16      26.87 s       12.60      22.68       1.67 s        1.64 s        1.73 s 
│ │ │ │ ├ addusd:skk                        32     502.76 ms       0.24     100.00      15.65 ms     637.77 us      30.98 ms
│ │ │ │ ├ addusd:dgemm                      32       3.98 s        1.87     100.00     124.37 ms     114.54 ms     134.73 ms
│ │ │ │ └ addusd:qvan2                      32      16.30 s        7.64     100.00     506.35 ms     493.00 ms     555.83 ms
│ │ │ └ sum_band:sym_rho                    16       1.36 s        0.64      86.25      88.49 ms      47.94 ms     137.67 ms
│ │ │   └ fft                               16     186.85 ms       0.09      14.95      11.69 ms      11.44 ms      11.89 ms
│ │ │     └ fft_scatter                     16     158.91 ms       0.07     100.00       9.94 ms       9.70 ms      10.13 ms
│ │ ├ qe|mix                                16     637.50 ms       0.30       0.03      44.65 ms     510.04 us      49.64 ms
│ │ │ └ mix_rho                             16     637.31 ms       0.30      48.05      44.64 ms     502.87 us      49.63 ms
│ │ │   └ fft                               28     331.10 ms       0.16      14.78      11.69 ms      11.28 ms      14.25 ms
│ │ │     └ fft_scatter                     28     282.15 ms       0.13     100.00       9.94 ms       9.58 ms      12.53 ms
│ │ ├ v_of_rho                              15       4.23 s        1.98       0.01     281.23 ms     279.85 ms     286.21 ms
│ │ │ ├ v_xc                                15       3.82 s        1.79      71.93     254.29 ms     253.42 ms     259.27 ms
│ │ │ │ └ fft                              105       1.07 s        0.50      15.46       9.35 ms       7.88 ms      15.60 ms
│ │ │ │   └ fft_scatter                    105     906.47 ms       0.42     100.00       7.84 ms       6.48 ms      13.95 ms
│ │ │ └ v_h                                 15     404.97 ms       0.19      47.87      26.92 ms      25.88 ms      28.32 ms
│ │ │   └ fft                               15     211.12 ms       0.10      13.43      13.92 ms      12.98 ms      15.38 ms
│ │ │     └ fft_scatter                     15     182.76 ms       0.09     100.00      12.05 ms      11.07 ms      13.46 ms
│ │ ├ interpolate                           15     175.32 ms       0.08      20.54      11.62 ms      11.37 ms      12.82 ms
│ │ │ ├ fft                                 15     124.08 ms       0.06      16.93       8.21 ms       8.01 ms       8.67 ms
│ │ │ │ └ fft_scatter                       15     103.08 ms       0.05     100.00       6.83 ms       6.57 ms       7.27 ms
│ │ │ └ ffts                                15      15.22 ms       0.01      13.97     971.58 us     880.56 us       1.71 ms
│ │ │   └ fft_scatter                       15      13.10 ms       0.01     100.00     831.68 us     743.50 us       1.53 ms
│ │ └ newd                                  15      31.04 s       14.55      99.24       2.07 s        2.05 s        2.08 s 
│ │   └ fft                                 15     237.12 ms       0.11       9.87      14.97 ms      12.76 ms      27.28 ms
│ │     └ fft_scatter                       15     213.71 ms       0.10     100.00      13.40 ms      11.21 ms      25.75 ms
│ ├ ions                                     1      43.59 s       20.44       0.00      43.59 s       43.59 s       43.59 s 
│ │ ├ forces                                 1       3.96 s        1.86       2.66       3.96 s        3.96 s        3.96 s 
│ │ │ ├ frc_us                               1       3.02 s        1.42      84.99       3.02 s        3.02 s        3.02 s 
│ │ │ │ ├ init_us_2                          4      66.55 ms       0.03     100.00      16.64 ms      16.54 ms      16.73 ms
│ │ │ │ ├ calbec                            16     376.94 ms       0.18     100.00      23.43 ms      23.20 ms      24.82 ms
│ │ │ │ └ fft                                1      10.34 ms       0.00      13.76      10.34 ms      10.34 ms      10.34 ms
│ │ │ │   └ fft_scatter                      1       8.92 ms       0.00     100.00       8.92 ms       8.92 ms       8.92 ms
│ │ │ ├ frc_lc                               1     130.82 ms       0.06      92.78     130.82 ms     130.82 ms     130.82 ms
│ │ │ │ └ fft                                1       9.44 ms       0.00      14.72       9.44 ms       9.44 ms       9.44 ms
│ │ │ │   └ fft_scatter                      1       8.05 ms       0.00     100.00       8.05 ms       8.05 ms       8.05 ms
│ │ │ ├ frc_cc                               1     493.58 ms       0.23      43.00     493.58 ms     493.58 ms     493.58 ms
│ │ │ │ ├ v_xc                               1     262.88 ms       0.12      66.82     262.88 ms     262.88 ms     262.88 ms
│ │ │ │ │ └ fft                              7      87.23 ms       0.04      12.78      10.65 ms      10.03 ms      17.78 ms
│ │ │ │ │   └ fft_scatter                    7      76.08 ms       0.04     100.00       9.17 ms       8.50 ms      16.15 ms
│ │ │ │ └ fft                                1      18.46 ms       0.01       9.14      18.46 ms      18.46 ms      18.46 ms
│ │ │ │   └ fft_scatter                      1      16.77 ms       0.01     100.00      16.77 ms      16.77 ms      16.77 ms
│ │ │ └ frc_scc                              1     204.77 ms       0.10      94.04     204.77 ms     204.77 ms     204.77 ms
│ │ │   └ fft                                1      12.20 ms       0.01      13.50      12.20 ms      12.20 ms      12.20 ms
│ │ │     └ fft_scatter                      1      10.55 ms       0.00     100.00      10.55 ms      10.55 ms      10.55 ms
│ │ └ stress                                 1      39.64 s       18.58      97.95      39.64 s       39.64 s       39.64 s 
│ │   ├ fft                                  7      84.23 ms       0.04      13.83      11.78 ms       9.27 ms      16.48 ms
│ │   │ └ fft_scatter                        7      72.58 ms       0.03     100.00       9.89 ms       7.73 ms      14.80 ms
│ │   ├ v_xc                                 1     253.38 ms       0.12      71.53     253.38 ms     253.38 ms     253.38 ms
│ │   │ └ fft                                7      72.15 ms       0.03      15.42       9.17 ms       8.26 ms      14.65 ms
│ │   │   └ fft_scatter                      7      61.02 ms       0.03     100.00       7.61 ms       6.77 ms      13.01 ms
│ │   ├ init_us_2                            4      66.46 ms       0.03     100.00      16.74 ms      16.21 ms      16.78 ms
│ │   ├ calbec                               4     191.55 ms       0.09     100.00      35.70 ms      23.21 ms      96.93 ms
│ │   ├ stres_us31                           4     224.06 us       0.00     100.00      54.97 us      38.86 us      75.27 us
│ │   ├ stres_us32                           4       3.77 ms       0.00     100.00     951.47 us     863.28 us     998.83 us
│ │   ├ stres_us33                           4       6.77 ms       0.00     100.00       1.68 ms       1.61 ms       1.80 ms
│ │   └ stres_us34                           4     204.79 ms       0.10     100.00      51.44 ms      49.37 ms      52.55 ms
│ └ qe|punch                                 1       1.61 s        0.75     100.00       1.61 s        1.61 s        1.61 s 
└ sirius::finalize                           1     132.35 ms       0.06     100.00     132.35 ms     132.35 ms     132.35 ms

============================================================================================================================
===========================================================================================================
                            #         Total          %     Self %        Median           Min           Max
-----------------------------------------------------------------------------------------------------------
sirius                      1     213.31 s      100.00       0.00     213.31 s      213.31 s      213.31 s 
├ PWSCF                     1     212.09 s       99.43     100.00     212.09 s      212.09 s      212.09 s 
├ electrons                 1     159.89 s       74.96     100.00     159.89 s      159.89 s      159.89 s 
├ c_bands                  16      87.70 s       41.11     100.00       4.14 s        3.09 s       12.26 s 
├ cegterg                  65      85.08 s       39.89     100.00     999.05 ms     720.29 ms       4.50 s 
├ cdiaghg                 381      45.40 s       21.28     100.00      25.42 ms      10.65 ms     312.21 ms
├ cegterg:diag            377      44.40 s       20.81     100.00      25.27 ms      10.66 ms     312.22 ms
├ ions                      1      43.59 s       20.44     100.00      43.59 s       43.59 s       43.59 s 
├ stress                    1      39.64 s       18.58     100.00      39.64 s       39.64 s       39.64 s 
├ sum_band                 16      35.58 s       16.68     100.00       2.22 s        2.16 s        2.27 s 
├ newd                     16      33.14 s       15.53     100.00       2.07 s        2.05 s        2.09 s 
├ h_psi_bgrp              389      30.94 s       14.50     100.00      50.03 ms       6.14 ms     292.23 ms
├ h_psi                   389      30.94 s       14.50     100.00      50.03 ms       6.13 ms     292.23 ms
├ h_psi:pot               389      30.80 s       14.44     100.00      49.94 ms       6.10 ms     291.02 ms
├ addusdens                16      26.87 s       12.60     100.00       1.67 s        1.64 s        1.73 s 
├ fftw                  67050      24.15 s       11.32     100.00     370.12 us     247.67 us       6.81 ms
├ vloc_psi                389      21.40 s       10.03     100.00      33.26 ms       2.27 ms     212.39 ms
├ fft_scatter           67314      19.48 s        9.13     100.00     271.58 us     142.22 us      25.75 ms
├ addusd:qvan2             32      16.30 s        7.64     100.00     506.35 ms     493.00 ms     555.83 ms
├ sum_band:loop            16       7.28 s        3.41     100.00     451.43 ms     437.06 ms     483.03 ms
├ calbec                  473       6.76 s        3.17     100.00      14.49 ms       1.95 ms      96.93 ms
├ init_run                  1       6.57 s        3.08     100.00       6.57 s        6.57 s        6.57 s 
├ s_psi_bgrp              389       4.94 s        2.31     100.00       7.87 ms       1.85 ms      39.86 ms
├ s_psi                   389       4.79 s        2.25     100.00       7.71 ms       1.83 ms      38.68 ms
├ add_vuspsi              389       4.77 s        2.24     100.00       8.00 ms       1.78 ms      39.37 ms
├ h_psi:calbec            389       4.63 s        2.17     100.00       6.81 ms       1.96 ms      41.52 ms
├ v_xc                     18       4.62 s        2.17     100.00     254.32 ms     253.38 ms     283.54 ms
├ v_of_rho                 16       4.54 s        2.13     100.00     281.26 ms     279.85 ms     313.09 ms
├ addusd:dgemm             32       3.98 s        1.87     100.00     124.37 ms     114.54 ms     134.73 ms
├ forces                    1       3.96 s        1.86     100.00       3.96 s        3.96 s        3.96 s 
├ frc_us                    1       3.02 s        1.42     100.00       3.02 s        3.02 s        3.02 s 
├ wfcinit                   1       2.82 s        1.32     100.00       2.82 s        2.82 s        2.82 s 
├ fft                     232       2.62 s        1.23     100.00      11.39 ms       7.88 ms      27.28 ms
├ wfcinit:wfcrot            4       2.40 s        1.13     100.00     597.12 ms     580.21 ms     626.24 ms
├ wfcrot                    4       2.40 s        1.13     100.00     597.11 ms     580.20 ms     626.23 ms
├ protwfck                  4       2.40 s        1.13     100.00     597.10 ms     580.20 ms     626.22 ms
├ init_us_2               140       2.39 s        1.12     100.00      16.77 ms      16.15 ms      49.14 ms
├ cegterg:last            143       2.10 s        0.98     100.00      21.51 ms       3.16 ms      28.05 ms
├ cegterg:overlap         320       1.76 s        0.82     100.00       2.27 ms     801.69 us      22.94 ms
├ cdiaghg:paragemm        762       1.63 s        0.76     100.00       1.22 ms     241.05 us      46.83 ms
├ qe|punch                  1       1.61 s        0.75     100.00       1.61 s        1.61 s        1.61 s 
├ sum_band:calbec          64       1.57 s        0.74     100.00      24.63 ms      22.97 ms      29.25 ms
├ sum_band:sym_rho         16       1.36 s        0.64     100.00      88.49 ms      47.94 ms     137.67 ms
├ protwfck:hpsi             4       1.10 s        0.52     100.00     273.13 ms     265.06 ms     292.24 ms
├ sirius::initialize        1       1.09 s        0.51     100.00       1.09 s        1.09 s        1.09 s 
├ sum_band:init_us_2       64       1.07 s        0.50     100.00      16.62 ms      16.29 ms      17.68 ms
├ cegterg:update          320       1.02 s        0.48     100.00       2.27 ms     648.68 us       8.39 ms
├ protwfck:diag             4       1.00 s        0.47     100.00     241.27 ms     238.84 ms     282.63 ms
├ qe|mix                   16     637.50 ms       0.30     100.00      44.65 ms     510.04 us      49.64 ms
├ mix_rho                  16     637.31 ms       0.30     100.00      44.64 ms     502.87 us      49.63 ms
├ cdiaghg:choldc          381     558.00 ms       0.26     100.00       1.11 ms     614.80 us      38.82 ms
├ hinit0                    1     550.13 ms       0.26     100.00     550.13 ms     550.13 ms     550.13 ms
├ addusd:skk               32     502.76 ms       0.24     100.00      15.65 ms     637.77 us      30.98 ms
├ frc_cc                    1     493.58 ms       0.23     100.00     493.58 ms     493.58 ms     493.58 ms
├ v_h                      16     434.49 ms       0.20     100.00      26.97 ms      25.88 ms      29.52 ms
├ cegterg:init             65     406.97 ms       0.19     100.00       5.91 ms       5.59 ms      11.51 ms
├ potinit                   1     370.50 ms       0.17     100.00     370.50 ms     370.50 ms     370.50 ms
├ init_us_1                 1     299.65 ms       0.14     100.00     299.65 ms     299.65 ms     299.65 ms
├ cdiaghg:inversion       381     282.11 ms       0.13     100.00     508.48 us     119.13 us       2.11 ms
├ protwfck:hc               4     226.76 ms       0.11     100.00      56.52 ms      55.35 ms      58.37 ms
├ stres_us34                4     204.79 ms       0.10     100.00      51.44 ms      49.37 ms      52.55 ms
├ frc_scc                   1     204.77 ms       0.10     100.00     204.77 ms     204.77 ms     204.77 ms
├ interpolate              16     187.42 ms       0.09     100.00      11.62 ms      11.37 ms      12.82 ms
├ sum_band:buffer          64     148.97 ms       0.07     100.00       2.32 ms       2.25 ms       2.43 ms
├ sirius::finalize          1     132.35 ms       0.06     100.00     132.35 ms     132.35 ms     132.35 ms
├ frc_lc                    1     130.82 ms       0.06     100.00     130.82 ms     130.82 ms     130.82 ms
├ init_vloc                 1     124.46 ms       0.06     100.00     124.46 ms     124.46 ms     124.46 ms
├ g_psi                   320      91.62 ms       0.04     100.00      91.74 us       9.01 us     898.89 us
├ sum_band:becsum          64      68.99 ms       0.03     100.00       1.07 ms     947.77 us       1.33 ms
├ protwfck:evc              4      40.94 ms       0.02     100.00       8.97 ms       8.13 ms      14.88 ms
├ qe|setlocal               1      38.88 ms       0.02     100.00      38.88 ms      38.88 ms      38.88 ms
├ wfcinit:atomic            4      33.73 ms       0.02     100.00       8.45 ms       8.34 ms       8.49 ms
├ atomic_wfc                4      33.70 ms       0.02     100.00       8.44 ms       8.33 ms       8.49 ms
├ qe|setup                  1      33.24 ms       0.02     100.00      33.24 ms      33.24 ms      33.24 ms
├ ffts                     32      30.64 ms       0.01     100.00     942.41 us     820.29 us       1.71 ms
├ qe|set_vrs                1      15.94 ms       0.01     100.00      15.94 ms      15.94 ms      15.94 ms
├ init_at_1                 1      13.88 ms       0.01     100.00      13.88 ms      13.88 ms      13.88 ms
├ stres_us33                4       6.77 ms       0.00     100.00       1.68 ms       1.61 ms       1.80 ms
├ stres_us32                4       3.77 ms       0.00     100.00     951.47 us     863.28 us     998.83 us
├ sum_band:weights         16       1.26 ms       0.00     100.00      78.38 us      67.65 us      86.34 us
├ stres_us31                4     224.06 us       0.00     100.00      54.97 us      38.86 us      75.27 us
├ qe|paw_becsum             1     849.00 ns       0.00     100.00     849.00 ns     849.00 ns     849.00 ns
└ qe|paw_potential          1     291.00 ns       0.00     100.00     291.00 ns     291.00 ns     291.00 ns

===========================================================================================================


Batch Job Summary Report (version 21.01.1) for Job "rfm_qe_Si63Ge_scf_native__1__4__job" (29995063) on daint

Job information (1/2)
-----------------------------------------------------------------------------------------------------
             Submit            Eligible               Start                 End    Elapsed Time limit
------------------- ------------------- ------------------- ------------------- ---------- ----------
2021-03-18T18:31:35 2021-03-18T18:31:35 2021-03-18T18:31:36 2021-03-18T18:35:21   00:03:45   00:10:00
-----------------------------------------------------------------------------------------------------

Job information (2/2)
-------------------------------------------------------------
    Username      Account    Partition   NNodes        Energy
------------ ------------ ------------ -------- -------------
      antonk      csstaff       normal        4    127.160 kJ

