SIRIUS 7.3.1, git hash: 8be157bcd256dae33dbaee388a186c736dcf26fc

     Program PWSCF v.7.0rc1 starts on 21Dec2021 at 13:46:44 
        Git branch: ristretto
        Last git commit: b5cdd86e46d52e63ae6adbdb81ea80069adf5932
        Last git commit date: Fri Dec 3 15:09:03 2021 +0100
        Last git commit subject: add XC_GGA_PW91                                   

     This program is part of the open-source Quantum ESPRESSO suite
     for quantum simulation of materials; please cite
         "P. Giannozzi et al., J. Phys.:Condens. Matter 21 395502 (2009);
         "P. Giannozzi et al., J. Phys.:Condens. Matter 29 465901 (2017);
         "P. Giannozzi et al., J. Chem. Phys. 152 154105 (2020);
          URL http://www.quantum-espresso.org", 
     in publications or presentations arising from this work. More details at
     http://www.quantum-espresso.org/quote

     Parallel version (MPI & OpenMP), running on      48 processor cores
     Number of MPI processes:                 4
     Threads/MPI process:                    12

     MPI processes distributed on     4 nodes
     R & G space division:  proc/nbgrp/npool/nimage =       4
     59136 MiB available memory on the printing compute node when the environment starts

     Reading input from pw.in
     Message from routine read_cards :
     DEPRECATED: no units specified in CELL_PARAMETERS card

     Current dimensions of program PWSCF are:
     Max number of different atomic species (ntypx) = 10
     Max number of k-points (npk) =  40000
     Max angular momentum in pseudopotentials (lmaxx) =  4
     Message from routine cell_base_init:
     DEPRECATED: use true lattice parameter, not A to a.u. conversion factor

     IMPORTANT: XC functional enforced from input :
     Exchange-correlation= XC-000I-000I-101L-130L-000I-000I
                           (   0   0 101 130   0   0   0)
     Any further DFT definition will be discarded
     Please, verify this is what you really want

     Message from routine setup:
     using ibrav=0 with symmetry is DISCOURAGED, use correct ibrav instead

     Subspace diagonalization in iterative solution of the eigenvalue problem:
     one sub-group per band group will be used
     scalapack distributed-memory algorithm (size of sub-group:  2*  2 procs)


     Parallelization info
     --------------------
     sticks:   dense  smooth     PW     G-vecs:    dense   smooth      PW
     Min        5024    1004    275               536366    47933    6901
     Max        5025    1005    276               536367    47934    6904
     Sum       20097    4017   1101              2145465   191735   27609

     Using Slab Decomposition



     bravais-lattice index     =            0
     lattice parameter (alat)  =       1.0000  a.u.
     unit-cell volume          =    8646.7719 (a.u.)^3
     number of atoms/cell      =           64
     number of atomic types    =            2
     number of electrons       =       266.00
     number of Kohn-Sham states=          160
     kinetic-energy cutoff     =      30.0000  Ry
     charge density cutoff     =     600.0000  Ry
     scf convergence threshold =      1.0E-09
     mixing beta               =       0.7000
     number of iterations used =            8  plain     mixing
     Exchange-correlation= XC-000I-000I-101L-130L-000I-000I
                           (   0   0 101 130   0   0   0)

     celldm(1)=   1.000000  celldm(2)=   0.000000  celldm(3)=   0.000000
     celldm(4)=   0.000000  celldm(5)=   0.000000  celldm(6)=   0.000000

     crystal axes: (cart. coord. in units of alat)
               a(1) = (  20.525071   0.000000   0.000000 )  
               a(2) = (   0.000000  20.525071   0.000000 )  
               a(3) = (   0.000000   0.000000  20.525071 )  

     reciprocal axes: (cart. coord. in units 2 pi/alat)
               b(1) = (  0.048721  0.000000  0.000000 )  
               b(2) = (  0.000000  0.048721  0.000000 )  
               b(3) = (  0.000000  0.000000  0.048721 )  


     PseudoPot. # 1 for Si read from file:
     ./Si.pbe-n-rrkjus_psl.1.0.0.UPF
     MD5 check sum: 0b0bb1205258b0d07b9f9672cf965d36
     Pseudo is Ultrasoft + core correction, Zval =  4.0
     Generated using "atomic" code by A. Dal Corso  v.5.1
     Using radial grid of 1141 points,  6 beta functions with: 
                l(1) =   0
                l(2) =   0
                l(3) =   1
                l(4) =   1
                l(5) =   2
                l(6) =   2
     Q(r) pseudized with 0 coefficients 


     PseudoPot. # 2 for Ge read from file:
     ./ge_pbe_v1.4.uspp.F.UPF
     MD5 check sum: 9c9eaa91e581c3f09632fb3098b2c6b2
     Pseudo is Ultrasoft + core correction, Zval = 14.0
     Generated by new atomic code, or converted to UPF format
     Using radial grid of  873 points,  6 beta functions with: 
                l(1) =   0
                l(2) =   0
                l(3) =   1
                l(4) =   1
                l(5) =   2
                l(6) =   2
     Q(r) pseudized with  8 coefficients,  rinner =    1.400   1.400   1.400
                                                       1.400   1.400

     atomic species   valence    mass     pseudopotential
        Si             4.00    28.08550     Si( 1.00)
        Ge            14.00    72.61000     Ge( 1.00)

     24 Sym. Ops. (no inversion) found



   Cartesian axes

     site n.     atom                  positions (alat units)
         1           Ge  tau(   1) = (   0.0000000   0.0000000   0.0000000  )
         2           Si  tau(   2) = (   0.0000000   0.0000000  10.2625355  )
         3           Si  tau(   3) = (   0.0000000  10.2625355   0.0000000  )
         4           Si  tau(   4) = (   0.0000000  10.2625355  10.2625355  )
         5           Si  tau(   5) = (  10.2625355   0.0000000   0.0000000  )
         6           Si  tau(   6) = (  10.2625355   0.0000000  10.2625355  )
         7           Si  tau(   7) = (  10.2625355  10.2625355   0.0000000  )
         8           Si  tau(   8) = (  10.2625355  10.2625355  10.2625355  )
         9           Si  tau(   9) = (   0.0000000   5.1312678   5.1312678  )
        10           Si  tau(  10) = (   0.0000000   5.1312678  15.3938033  )
        11           Si  tau(  11) = (   0.0000000  15.3938033   5.1312678  )
        12           Si  tau(  12) = (   0.0000000  15.3938033  15.3938033  )
        13           Si  tau(  13) = (  10.2625355   5.1312678   5.1312678  )
        14           Si  tau(  14) = (  10.2625355   5.1312678  15.3938033  )
        15           Si  tau(  15) = (  10.2625355  15.3938033   5.1312678  )
        16           Si  tau(  16) = (  10.2625355  15.3938033  15.3938033  )
        17           Si  tau(  17) = (   5.1312678   0.0000000   5.1312678  )
        18           Si  tau(  18) = (   5.1312678   0.0000000  15.3938033  )
        19           Si  tau(  19) = (   5.1312678  10.2625355   5.1312678  )
        20           Si  tau(  20) = (   5.1312678  10.2625355  15.3938033  )
        21           Si  tau(  21) = (  15.3938033   0.0000000   5.1312678  )
        22           Si  tau(  22) = (  15.3938033   0.0000000  15.3938033  )
        23           Si  tau(  23) = (  15.3938033  10.2625355   5.1312678  )
        24           Si  tau(  24) = (  15.3938033  10.2625355  15.3938033  )
        25           Si  tau(  25) = (   5.1312678   5.1312678   0.0000000  )
        26           Si  tau(  26) = (   5.1312678   5.1312678  10.2625355  )
        27           Si  tau(  27) = (   5.1312678  15.3938033   0.0000000  )
        28           Si  tau(  28) = (   5.1312678  15.3938033  10.2625355  )
        29           Si  tau(  29) = (  15.3938033   5.1312678   0.0000000  )
        30           Si  tau(  30) = (  15.3938033   5.1312678  10.2625355  )
        31           Si  tau(  31) = (  15.3938033  15.3938033   0.0000000  )
        32           Si  tau(  32) = (  15.3938033  15.3938033  10.2625355  )
        33           Si  tau(  33) = (   7.6969016   7.6969016   2.5656339  )
        34           Si  tau(  34) = (   7.6969016   7.6969016  12.8281694  )
        35           Si  tau(  35) = (   7.6969016  17.9594371   2.5656339  )
        36           Si  tau(  36) = (   7.6969016  17.9594371  12.8281694  )
        37           Si  tau(  37) = (  17.9594371   7.6969016   2.5656339  )
        38           Si  tau(  38) = (  17.9594371   7.6969016  12.8281694  )
        39           Si  tau(  39) = (  17.9594371  17.9594371   2.5656339  )
        40           Si  tau(  40) = (  17.9594371  17.9594371  12.8281694  )
        41           Si  tau(  41) = (   7.6969016   2.5656339   7.6969016  )
        42           Si  tau(  42) = (   7.6969016   2.5656339  17.9594371  )
        43           Si  tau(  43) = (   7.6969016  12.8281694   7.6969016  )
        44           Si  tau(  44) = (   7.6969016  12.8281694  17.9594371  )
        45           Si  tau(  45) = (  17.9594371   2.5656339   7.6969016  )
        46           Si  tau(  46) = (  17.9594371   2.5656339  17.9594371  )
        47           Si  tau(  47) = (  17.9594371  12.8281694   7.6969016  )
        48           Si  tau(  48) = (  17.9594371  12.8281694  17.9594371  )
        49           Si  tau(  49) = (   2.5656339   7.6969016   7.6969016  )
        50           Si  tau(  50) = (   2.5656339   7.6969016  17.9594371  )
        51           Si  tau(  51) = (   2.5656339  17.9594371   7.6969016  )
        52           Si  tau(  52) = (   2.5656339  17.9594371  17.9594371  )
        53           Si  tau(  53) = (  12.8281694   7.6969016   7.6969016  )
        54           Si  tau(  54) = (  12.8281694   7.6969016  17.9594371  )
        55           Si  tau(  55) = (  12.8281694  17.9594371   7.6969016  )
        56           Si  tau(  56) = (  12.8281694  17.9594371  17.9594371  )
        57           Si  tau(  57) = (   2.5656339   2.5656339   2.5656339  )
        58           Si  tau(  58) = (   2.5656339   2.5656339  12.8281694  )
        59           Si  tau(  59) = (   2.5656339  12.8281694   2.5656339  )
        60           Si  tau(  60) = (   2.5656339  12.8281694  12.8281694  )
        61           Si  tau(  61) = (  12.8281694   2.5656339   2.5656339  )
        62           Si  tau(  62) = (  12.8281694   2.5656339  12.8281694  )
        63           Si  tau(  63) = (  12.8281694  12.8281694   2.5656339  )
        64           Si  tau(  64) = (  12.8281694  12.8281694  12.8281694  )

     number of k points=     4  Gaussian smearing, width (Ry)=  0.0020
                       cart. coord. in units 2pi/alat
        k(    1) = (   0.0000000   0.0000000   0.0000000), wk =   0.2500000
        k(    2) = (   0.0000000   0.0000000  -0.0243605), wk =   0.7500000
        k(    3) = (   0.0000000  -0.0243605  -0.0243605), wk =   0.7500000
        k(    4) = (  -0.0243605  -0.0243605  -0.0243605), wk =   0.2500000

     Dense  grid:  2145465 G-vectors     FFT dimensions: ( 162, 162, 162)

     Smooth grid:   191735 G-vectors     FFT dimensions: (  72,  72,  72)

     Estimated max dynamical RAM per process >       3.47 GB

     Estimated total dynamical RAM >      13.86 GB

     WARNING: libxc functional with ID  101 depends
      on external parameters: check the user_guide of
      QE if you need to modify them or to check their
      default values.

     WARNING: libxc functional with ID  130 depends
      on external parameters: check the user_guide of
      QE if you need to modify them or to check their
      default values.

     Initial potential from superposition of free atoms

     starting charge     265.9639, renormalised to     266.0000
     Starting wfcs are  261 randomized atomic wfcs

     total cpu time spent up to now is        7.5 secs

     per-process dynamical memory:  1269.1 Mb

     Self-consistent Calculation

     iteration #  1     ecut=    30.00 Ry     beta= 0.70
     Davidson diagonalization with overlap
     ethr =  1.00E-02,  avg # of iterations =  3.5

     Threshold (ethr) on eigenvalues was too large:
     Diagonalizing with lowered threshold

     Davidson diagonalization with overlap
     ethr =  6.00E-04,  avg # of iterations =  2.0

     total cpu time spent up to now is       24.7 secs

     total energy              =    -932.97699167 Ry
     estimated scf accuracy    <       1.74019474 Ry
 
     Band energy sum           =       1.09491037 Ry

     iteration #  2     ecut=    30.00 Ry     beta= 0.70
     Davidson diagonalization with overlap
     ethr =  6.54E-04,  avg # of iterations =  1.0

     total cpu time spent up to now is       32.8 secs

     total energy              =    -933.04089926 Ry
     estimated scf accuracy    <       0.08549520 Ry
 
     Band energy sum           =       7.79250118 Ry

     iteration #  3     ecut=    30.00 Ry     beta= 0.70
     Davidson diagonalization with overlap
     ethr =  3.21E-05,  avg # of iterations =  9.2

     total cpu time spent up to now is       47.0 secs

     total energy              =    -933.05335267 Ry
     estimated scf accuracy    <       0.01453134 Ry
 
     Band energy sum           =       9.72913153 Ry

     iteration #  4     ecut=    30.00 Ry     beta= 0.70
     Davidson diagonalization with overlap
     c_bands:  1 eigenvalues not converged
     c_bands:  1 eigenvalues not converged
     ethr =  5.46E-06,  avg # of iterations = 22.5

     total cpu time spent up to now is       63.9 secs

     total energy              =    -933.05598380 Ry
     estimated scf accuracy    <       0.02333453 Ry
 
     Band energy sum           =       9.07455723 Ry

     iteration #  5     ecut=    30.00 Ry     beta= 0.70
     Davidson diagonalization with overlap
     ethr =  5.46E-06,  avg # of iterations =  7.2

     total cpu time spent up to now is       76.5 secs

     total energy              =    -933.05931138 Ry
     estimated scf accuracy    <       0.00161264 Ry
 
     Band energy sum           =       8.98253086 Ry

     iteration #  6     ecut=    30.00 Ry     beta= 0.70
     Davidson diagonalization with overlap
     ethr =  6.06E-07,  avg # of iterations =  4.0

     total cpu time spent up to now is       87.9 secs

     total energy              =    -933.05977684 Ry
     estimated scf accuracy    <       0.00027013 Ry
 
     Band energy sum           =       9.06863763 Ry

     iteration #  7     ecut=    30.00 Ry     beta= 0.70
     Davidson diagonalization with overlap
     ethr =  1.02E-07,  avg # of iterations =  2.0

     total cpu time spent up to now is       96.3 secs

     total energy              =    -933.05978658 Ry
     estimated scf accuracy    <       0.00007362 Ry
 
     Band energy sum           =       9.09965738 Ry

     iteration #  8     ecut=    30.00 Ry     beta= 0.70
     Davidson diagonalization with overlap
     ethr =  2.77E-08,  avg # of iterations =  4.0

     total cpu time spent up to now is      105.1 secs

     total energy              =    -933.05979696 Ry
     estimated scf accuracy    <       0.00000394 Ry
 
     Band energy sum           =       9.10172503 Ry

     iteration #  9     ecut=    30.00 Ry     beta= 0.70
     Davidson diagonalization with overlap
     ethr =  1.48E-09,  avg # of iterations =  5.0

     total cpu time spent up to now is      116.2 secs

     total energy              =    -933.05980034 Ry
     estimated scf accuracy    <       0.00000379 Ry
 
     Band energy sum           =       9.10102316 Ry

     iteration # 10     ecut=    30.00 Ry     beta= 0.70
     Davidson diagonalization with overlap
     ethr =  1.43E-09,  avg # of iterations =  1.5

     total cpu time spent up to now is      124.3 secs

     total energy              =    -933.05980014 Ry
     estimated scf accuracy    <       0.00000117 Ry
 
     Band energy sum           =       9.10239926 Ry

     iteration # 11     ecut=    30.00 Ry     beta= 0.70
     Davidson diagonalization with overlap
     ethr =  4.39E-10,  avg # of iterations =  4.0

     total cpu time spent up to now is      133.1 secs

     total energy              =    -933.05980039 Ry
     estimated scf accuracy    <       0.00000001 Ry
 
     Band energy sum           =       9.10296658 Ry

     iteration # 12     ecut=    30.00 Ry     beta= 0.70
     Davidson diagonalization with overlap
     ethr =  4.87E-12,  avg # of iterations =  5.8

     total cpu time spent up to now is      144.8 secs

     total energy              =    -933.05980040 Ry
     estimated scf accuracy    <       0.00000003 Ry
 
     Band energy sum           =       9.10257395 Ry

     iteration # 13     ecut=    30.00 Ry     beta= 0.70
     Davidson diagonalization with overlap
     ethr =  4.87E-12,  avg # of iterations =  2.2

     total cpu time spent up to now is      153.3 secs

     total energy              =    -933.05980040 Ry
     estimated scf accuracy    <          7.3E-09 Ry
 
     Band energy sum           =       9.10253801 Ry

     iteration # 14     ecut=    30.00 Ry     beta= 0.70
     Davidson diagonalization with overlap
     ethr =  2.75E-12,  avg # of iterations =  4.0

     total cpu time spent up to now is      162.3 secs

     total energy              =    -933.05980040 Ry
     estimated scf accuracy    <          1.1E-09 Ry
 
     Band energy sum           =       9.10243267 Ry

     iteration # 15     ecut=    30.00 Ry     beta= 0.70
     Davidson diagonalization with overlap
     ethr =  4.28E-13,  avg # of iterations =  2.0

     total cpu time spent up to now is      170.8 secs

     End of self-consistent calculation

          k = 0.0000 0.0000 0.0000 ( 23871 PWs)   bands (ev):

   -17.9788 -17.9788 -17.9788 -17.9497 -17.9497  -5.7327  -4.7812  -4.6246
    -4.6246  -4.6246  -4.6224  -4.6224  -3.8976  -3.6656  -3.6656  -3.6656
    -3.6610  -3.6610  -3.6610  -3.6610  -3.6610  -3.6610  -3.6607  -3.6607
    -3.4146  -3.3739  -3.3739  -3.3739  -1.7251  -1.5636  -1.5636  -1.5636
    -1.5608  -1.5608  -1.4816  -1.4003  -1.4003  -1.4003  -1.3977  -1.3977
    -1.3977  -1.3966  -1.3966  -1.3966  -1.3965  -1.3965  -0.7345  -0.7181
    -0.7181  -0.7181   0.6638   0.7721   0.7721   0.7721   0.7749   0.7749
     0.7749   0.7760   0.7760   0.7782   0.7782   0.7782   2.3961   2.3961
     2.3961   2.4034   2.4034   2.4034   2.4041   2.4041   2.4041   2.4044
     2.4064   2.4064   2.4909   2.4971   2.4971   2.4971   2.5039   2.5039
     2.5039   2.5056   2.5056   2.5067   2.5067   2.5067   2.6860   2.7393
     2.7393   2.7434   2.7434   2.7434   3.4015   3.4015   3.4015   3.4034
     3.4034   3.4034   4.3646   4.3646   4.3646   4.3647   4.3647   4.3647
     4.3670   4.3670   4.3670   4.3764   4.3764   4.3764   4.9265   4.9265
     4.9265   4.9291   4.9291   4.9291   4.9291   4.9321   4.9321   4.9385
     4.9385   4.9385   5.0556   5.0556   5.0556   5.0591   5.0591   5.0671
     5.0671   5.0671   6.2663   6.2663   6.2663   6.9477   6.9803   6.9803
     6.9803   6.9810   6.9810   7.3687   7.3930   7.3930   7.4011   7.4011
     7.4011   7.7474   7.8033   7.8033   7.8033   8.6605   8.7058   8.7067
     8.7069   8.7116   8.7154   8.7233   8.7307   8.8231   8.8254   8.8287

          k = 0.0000 0.0000-0.0244 ( 23980 PWs)   bands (ev):

   -17.9801 -17.9799 -17.9799 -17.9505 -17.9501  -5.4884  -5.4318  -4.5686
    -4.3788  -4.3788  -4.3770  -4.3758  -4.3751  -4.3751  -4.3742  -3.6868
    -3.5345  -3.5345  -3.5321  -3.5312  -3.5311  -3.5311  -3.5309  -3.3316
    -3.3134  -2.7047  -2.5932  -2.5887  -2.5887  -2.5881  -2.5881  -2.5878
    -2.5873  -1.5898  -1.4877  -1.4877  -1.4833  -1.4828  -1.4824  -1.4824
    -1.4824  -0.4208  -0.3164  -0.3164  -0.3135  -0.3135  -0.3131  -0.3129
    -0.3128  -0.1583  -0.1296  -0.1276  -0.1276  -0.1216  -0.1212  -0.1206
    -0.1206   0.4915   0.5104   1.8969   1.9646   1.9646   1.9658   1.9663
     1.9689   1.9709   1.9709   2.0237   2.0237   2.0246   2.0284   2.0290
     2.0290   2.0293   2.0309   2.8350   2.8350   2.8364   2.8379   2.8391
     2.8407   2.8407   2.8424   3.5371   3.5395   3.5422   3.5422   3.5423
     3.5453   3.5491   3.5491   3.6464   3.6464   3.6510   3.6510   3.6710
     3.6713   3.6714   3.6714   3.6731   3.6747   3.6747   3.6756   3.7798
     3.7927   3.7927   3.7949   3.7964   3.7978   3.7978   3.8010   4.8248
     4.8277   4.8277   4.8288   4.8319   4.8319   4.8325   4.8435   4.9118
     4.9351   4.9873   4.9914   4.9914   4.9916   4.9916   4.9942   5.0008
     5.0008   5.4503   5.4503   5.4610   5.4610   6.8719   6.8859   7.8041
     7.8086   8.2123   8.2288   8.2309   8.2309   8.2343   8.2498   8.2520
     8.2520   8.2691   8.2816   8.5664   8.6162   8.6162   8.6188   8.6214
     8.6219   8.6219   8.6609   8.7040   8.7058   8.7082   8.7088   8.7088

          k = 0.0000-0.0244-0.0244 ( 23980 PWs)   bands (ev):

   -17.9798 -17.9793 -17.9793 -17.9510 -17.9509  -5.2736  -5.1650  -5.1650
    -5.1637  -4.3258  -4.1543  -4.1492  -4.1492  -4.1480  -4.1480  -4.1479
    -4.1476  -3.2865  -3.1175  -3.1175  -3.1118  -3.1118  -3.1117  -3.1115
    -3.1115  -2.9194  -2.8374  -2.8374  -2.8353  -2.8351  -2.8348  -2.8344
    -2.8344  -2.0284  -1.9766  -1.9752  -1.9752  -1.0262  -0.9757  -0.9709
    -0.9709  -0.5967  -0.5374  -0.5374  -0.5355  -0.5310  -0.5305  -0.5300
    -0.5300   0.2039   0.2904   0.2914   0.2914   0.2915   0.2915   0.2918
     0.2918   0.9211   0.9664   0.9664   0.9678   0.9709   0.9723   0.9723
     0.9753   1.9513   1.9513   1.9520   1.9560   2.7875   2.8032   2.8039
     2.8039   2.8052   2.8088   2.8092   2.8092   2.8896   2.8896   2.8922
     2.8927   2.8950   2.8950   2.8951   2.8951   3.4935   3.4948   3.4962
     3.4962   3.4988   3.4989   3.4989   3.4994   3.5477   3.5712   3.5784
     3.5784   3.8300   3.8300   3.8308   3.8324   4.0943   4.0943   4.0976
     4.0981   4.0987   4.0987   4.1017   4.1039   4.4053   4.4224   4.4226
     4.4226   4.4244   4.4253   4.4253   4.4341   4.6269   4.6281   4.6281
     4.6412   4.6679   4.6682   4.6682   4.6700   4.6701   4.6715   4.6803
     4.6803   5.9644   5.9655   5.9774   5.9774   7.4631   7.4631   7.4649
     7.4847   8.1857   8.2043   8.2070   8.2070   8.2129   8.2211   8.2294
     8.2294   8.4870   8.5039   8.5051   8.5051   8.5061   8.5106   8.5106
     8.5487   8.8992   8.9059   8.9077   8.9084   8.9234   8.9256   8.9379

          k =-0.0244-0.0244-0.0244 ( 23984 PWs)   bands (ev):

   -17.9794 -17.9794 -17.9794 -17.9509 -17.9509  -5.0995  -4.9070  -4.9070
    -4.9070  -4.9047  -4.9042  -4.9042  -4.9042  -3.3854  -2.9959  -2.9959
    -2.9959  -2.9877  -2.9877  -2.9876  -2.9876  -2.9876  -2.9871  -2.9871
    -2.9871  -2.9870  -2.9870  -2.9870  -2.9869  -2.9862  -2.9862  -2.9862
    -2.9861  -2.9861  -2.9859  -2.9859  -2.9859  -0.3641  -0.1387  -0.1387
    -0.1387  -0.1278  -0.1278  -0.1278  -0.1270  -0.1270  -0.1270  -0.1270
    -0.1270  -0.1270  -0.1268  -0.1268  -0.1268  -0.1262  -0.1262  -0.1257
    -0.1257  -0.1257  -0.1250  -0.1250  -0.1250   2.2799   2.3262   2.3262
     2.3262   2.3284   2.3337   2.3337   2.3337   2.6894   2.7117   2.7117
     2.7117   2.7212   2.7212   2.7212   2.7220   2.7220   2.7220   2.7223
     2.7223   2.7223   2.7224   2.7224   2.7224   2.7224   2.7224   2.7228
     2.7269   2.7269   2.7276   2.7276   2.7276   4.0440   4.0440   4.0440
     4.0491   4.0491   4.0491   4.0504   4.0504   4.0504   4.0512   4.0515
     4.0515   4.0515   4.0521   4.0521   4.0522   4.0522   4.0522   4.0522
     4.0538   4.0538   4.0607   4.0607   4.0607   5.4954   5.4954   5.4954
     5.4969   5.4969   5.4971   5.4971   5.4971   5.4976   5.4976   5.4976
     5.4987   5.4987   5.5232   5.5232   5.5232   7.6931   7.7754   7.7754
     7.7754   7.7775   7.7789   7.7789   7.7789   7.7793   7.7793   7.7795
     7.7795   7.7795   7.7800   7.7800   7.7800   7.7809   7.7809   7.7809
     7.8231   7.8231   7.8231   7.8283   7.8283   8.2183   8.2814   8.2861

     the Fermi energy is     6.6354 ev

!    total energy              =    -933.05980040 Ry
     estimated scf accuracy    <          2.8E-10 Ry
     smearing contrib. (-TS)   =      -0.00000000 Ry
     internal energy E=F+TS    =    -933.05980040 Ry

     The total energy is F=E-TS. E is the sum of the following terms:
     one-electron contribution =     -44.53855052 Ry
     hartree contribution      =     150.89721612 Ry
     xc contribution           =    -446.10603217 Ry
     ewald contribution        =    -593.31243382 Ry
 
     Band energy sum           =       9.10244669 Ry

     convergence has been achieved in  15 iterations

     Forces acting on atoms (cartesian axes, Ry/au):

     atom    1 type  2   force =     0.00000000    0.00000000    0.00000000
     atom    2 type  1   force =     0.00000000    0.00000000    0.00000000
     atom    3 type  1   force =     0.00000000    0.00000000    0.00000000
     atom    4 type  1   force =     0.00000000    0.00000000    0.00000000
     atom    5 type  1   force =     0.00000000    0.00000000    0.00000000
     atom    6 type  1   force =     0.00000000    0.00000000    0.00000000
     atom    7 type  1   force =     0.00000000    0.00000000    0.00000000
     atom    8 type  1   force =     0.00000000    0.00000000    0.00000000
     atom    9 type  1   force =     0.00046950   -0.00002733   -0.00002733
     atom   10 type  1   force =    -0.00046950   -0.00002733    0.00002733
     atom   11 type  1   force =    -0.00046950    0.00002733   -0.00002733
     atom   12 type  1   force =     0.00046950    0.00002733    0.00002733
     atom   13 type  1   force =    -0.00003648    0.00002985    0.00002985
     atom   14 type  1   force =     0.00003648    0.00002985   -0.00002985
     atom   15 type  1   force =     0.00003648   -0.00002985    0.00002985
     atom   16 type  1   force =    -0.00003648   -0.00002985   -0.00002985
     atom   17 type  1   force =    -0.00002733    0.00046950   -0.00002733
     atom   18 type  1   force =    -0.00002733   -0.00046950    0.00002733
     atom   19 type  1   force =     0.00002985   -0.00003648    0.00002985
     atom   20 type  1   force =     0.00002985    0.00003648   -0.00002985
     atom   21 type  1   force =     0.00002733   -0.00046950   -0.00002733
     atom   22 type  1   force =     0.00002733    0.00046950    0.00002733
     atom   23 type  1   force =    -0.00002985    0.00003648    0.00002985
     atom   24 type  1   force =    -0.00002985   -0.00003648   -0.00002985
     atom   25 type  1   force =    -0.00002733   -0.00002733    0.00046950
     atom   26 type  1   force =     0.00002985    0.00002985   -0.00003648
     atom   27 type  1   force =    -0.00002733    0.00002733   -0.00046950
     atom   28 type  1   force =     0.00002985   -0.00002985    0.00003648
     atom   29 type  1   force =     0.00002733   -0.00002733   -0.00046950
     atom   30 type  1   force =    -0.00002985    0.00002985    0.00003648
     atom   31 type  1   force =     0.00002733    0.00002733    0.00046950
     atom   32 type  1   force =    -0.00002985   -0.00002985   -0.00003648
     atom   33 type  1   force =     0.00003285    0.00003285   -0.00006770
     atom   34 type  1   force =    -0.00002040   -0.00002040    0.00002040
     atom   35 type  1   force =     0.00000086    0.00001045   -0.00001045
     atom   36 type  1   force =     0.00003285    0.00006770   -0.00003285
     atom   37 type  1   force =     0.00001045    0.00000086   -0.00001045
     atom   38 type  1   force =     0.00006770    0.00003285   -0.00003285
     atom   39 type  1   force =    -0.01100831   -0.01100831    0.01100831
     atom   40 type  1   force =     0.00001045    0.00001045   -0.00000086
     atom   41 type  1   force =     0.00003285   -0.00006770    0.00003285
     atom   42 type  1   force =     0.00000086   -0.00001045    0.00001045
     atom   43 type  1   force =    -0.00002040    0.00002040   -0.00002040
     atom   44 type  1   force =     0.00003285   -0.00003285    0.00006770
     atom   45 type  1   force =     0.00001045   -0.00001045    0.00000086
     atom   46 type  1   force =    -0.01100831    0.01100831   -0.01100831
     atom   47 type  1   force =     0.00006770   -0.00003285    0.00003285
     atom   48 type  1   force =     0.00001045   -0.00000086    0.00001045
     atom   49 type  1   force =    -0.00006770    0.00003285    0.00003285
     atom   50 type  1   force =    -0.00001045    0.00000086    0.00001045
     atom   51 type  1   force =    -0.00001045    0.00001045    0.00000086
     atom   52 type  1   force =     0.01100831   -0.01100831   -0.01100831
     atom   53 type  1   force =     0.00002040   -0.00002040   -0.00002040
     atom   54 type  1   force =    -0.00003285    0.00003285    0.00006770
     atom   55 type  1   force =    -0.00003285    0.00006770    0.00003285
     atom   56 type  1   force =    -0.00000086    0.00001045    0.00001045
     atom   57 type  1   force =     0.01100831    0.01100831    0.01100831
     atom   58 type  1   force =    -0.00001045   -0.00001045   -0.00000086
     atom   59 type  1   force =    -0.00001045   -0.00000086   -0.00001045
     atom   60 type  1   force =    -0.00006770   -0.00003285   -0.00003285
     atom   61 type  1   force =    -0.00000086   -0.00001045   -0.00001045
     atom   62 type  1   force =    -0.00003285   -0.00006770   -0.00003285
     atom   63 type  1   force =    -0.00003285   -0.00003285   -0.00006770
     atom   64 type  1   force =     0.00002040    0.00002040    0.00002040

     Total force =     0.038170     Total SCF correction =     0.000035


     Computing stress (Cartesian axis) and pressure

          total   stress  (Ry/bohr**3)                   (kbar)     P=       19.16
   0.00013024   0.00000000   0.00000000           19.16        0.00        0.00
   0.00000000   0.00013024   0.00000000            0.00       19.16        0.00
   0.00000000   0.00000000   0.00013024            0.00        0.00       19.16


     Writing all to output data dir ./scf_.save/

     init_run     :     27.66s CPU      6.93s WALL (       1 calls)
     electrons    :   1086.29s CPU    163.56s WALL (       1 calls)
     forces       :     17.81s CPU      4.24s WALL (       1 calls)
     stress       :    195.27s CPU     40.21s WALL (       1 calls)

     Called by init_run:
     wfcinit      :     21.80s CPU      2.80s WALL (       1 calls)
     potinit      :      1.39s CPU      0.72s WALL (       1 calls)
     hinit0       :      1.05s CPU      0.61s WALL (       1 calls)

     Called by electrons:
     c_bands      :    798.85s CPU     86.55s WALL (      16 calls)
     sum_band     :    227.95s CPU     35.25s WALL (      16 calls)
     v_of_rho     :     17.27s CPU     10.42s WALL (      16 calls)
     newd         :     42.58s CPU     32.87s WALL (      16 calls)
     mix_rho      :      2.07s CPU      0.54s WALL (      16 calls)

     Called by c_bands:
     init_us_2    :      2.23s CPU      2.27s WALL (     140 calls)
     init_us_2:cp :      2.23s CPU      2.27s WALL (     140 calls)
     cegterg      :    785.48s CPU     84.00s WALL (      65 calls)

     Called by *egterg:
     cdiaghg      :    316.89s CPU     44.36s WALL (     381 calls)
     h_psi        :    361.74s CPU     31.06s WALL (     389 calls)
     s_psi        :     54.56s CPU      4.57s WALL (     389 calls)
     g_psi        :      1.45s CPU      0.09s WALL (     320 calls)

     Called by h_psi:
     h_psi:calbec :     56.89s CPU      4.58s WALL (     389 calls)
     vloc_psi     :    252.86s CPU     21.74s WALL (     389 calls)
     add_vuspsi   :     51.51s CPU      4.59s WALL (     389 calls)

     General routines
     calbec       :     82.21s CPU      6.63s WALL (     473 calls)
     fft          :      8.03s CPU      2.56s WALL (     232 calls)
     ffts         :      0.20s CPU      0.03s WALL (      32 calls)
     fftw         :    283.31s CPU     24.32s WALL (   67050 calls)
     interpolate  :      0.66s CPU      0.18s WALL (      16 calls)

     Parallel routines

     PWSCF        :  22m 7.54s CPU   3m37.31s WALL


   This run was terminated on:  13:50:21  21Dec2021            

=------------------------------------------------------------------------------=
   JOB DONE.
=------------------------------------------------------------------------------=
============================================================================================================================
                                             #         Total          %     Self %        Median           Min           Max
----------------------------------------------------------------------------------------------------------------------------
sirius                                       1     219.14 s      100.00       0.00     219.14 s      219.14 s      219.14 s 
├ sirius::initialize                         1       1.69 s        0.77     100.00       1.69 s        1.69 s        1.69 s 
├ PWSCF                                      1     217.31 s       99.17       1.09     217.31 s      217.31 s      217.31 s 
│ ├ init_run                                 1       6.93 s        3.16      10.66       6.93 s        6.93 s        6.93 s 
│ │ ├ hinit0                                 1     608.48 ms       0.28      16.43     608.48 ms     608.48 ms     608.48 ms
│ │ │ ├ init_vloc                            1     124.37 ms       0.06     100.00     124.37 ms     124.37 ms     124.37 ms
│ │ │ ├ init_us_1                            1     296.04 ms       0.14     100.00     296.04 ms     296.04 ms     296.04 ms
│ │ │ └ fft                                  2      88.09 ms       0.04      76.56      44.05 ms      12.98 ms      75.11 ms
│ │ │   └ fft_scatter                        2      20.65 ms       0.01     100.00      10.33 ms       9.50 ms      11.15 ms
│ │ ├ potinit                                1     720.84 ms       0.33       4.56     720.84 ms     720.84 ms     720.84 ms
│ │ │ ├ fft                                  1      12.07 ms       0.01      15.37      12.07 ms      12.07 ms      12.07 ms
│ │ │ │ └ fft_scatter                        1      10.22 ms       0.00     100.00      10.22 ms      10.22 ms      10.22 ms
│ │ │ ├ v_of_rho                             1     664.07 ms       0.30       0.00     664.07 ms     664.07 ms     664.07 ms
│ │ │ │ ├ v_xc                               1     641.17 ms       0.29      88.79     641.17 ms     641.17 ms     641.17 ms
│ │ │ │ │ └ fft                              7      71.84 ms       0.03      14.84       9.15 ms       7.79 ms      14.63 ms
│ │ │ │ │   └ fft_scatter                    7      61.18 ms       0.03     100.00       7.64 ms       6.40 ms      12.75 ms
│ │ │ │ └ v_h                                1      22.87 ms       0.01      47.26      22.87 ms      22.87 ms      22.87 ms
│ │ │ │   └ fft                              1      12.06 ms       0.01      15.44      12.06 ms      12.06 ms      12.06 ms
│ │ │ │     └ fft_scatter                    1      10.20 ms       0.00     100.00      10.20 ms      10.20 ms      10.20 ms
│ │ │ └ interpolate                          1      11.86 ms       0.01      19.92      11.86 ms      11.86 ms      11.86 ms
│ │ │   ├ fft                                1       8.53 ms       0.00      16.07       8.53 ms       8.53 ms       8.53 ms
│ │ │   │ └ fft_scatter                      1       7.16 ms       0.00     100.00       7.16 ms       7.16 ms       7.16 ms
│ │ │   └ ffts                               1     964.99 us       0.00      20.96     964.99 us     964.99 us     964.99 us
│ │ │     └ fft_scatter                      1     762.68 us       0.00     100.00     762.68 us     762.68 us     762.68 us
│ │ ├ newd                                   1       2.07 s        0.94      99.44       2.07 s        2.07 s        2.07 s 
│ │ │ └ fft                                  1      11.57 ms       0.01      13.02      11.57 ms      11.57 ms      11.57 ms
│ │ │   └ fft_scatter                        1      10.06 ms       0.00     100.00      10.06 ms      10.06 ms      10.06 ms
│ │ └ wfcinit                                1       2.80 s        1.28      10.21       2.80 s        2.80 s        2.80 s 
│ │   ├ init_us_2                            4      97.74 ms       0.04       0.07      16.44 ms      16.14 ms      48.71 ms
│ │   │ └ init_us_2:cpu                      4      97.67 ms       0.04     100.00      16.42 ms      16.13 ms      48.70 ms
│ │   ├ wfcinit:atomic                       4      42.02 ms       0.02       0.08       9.46 ms       7.83 ms      15.27 ms
│ │   │ └ atomic_wfc                         4      41.99 ms       0.02     100.00       9.45 ms       7.82 ms      15.26 ms
│ │   └ wfcinit:wfcrot                       4       2.37 s        1.08       0.00     586.09 ms     573.33 ms     626.40 ms
│ │     └ wfcrot                             4       2.37 s        1.08       0.00     586.08 ms     573.32 ms     626.39 ms
│ │       └ protwfck                         4       2.37 s        1.08       1.37     586.08 ms     573.32 ms     626.38 ms
│ │         ├ protwfck:hpsi                  4       1.09 s        0.50       0.00     272.88 ms     270.98 ms     275.91 ms
│ │         │ └ h_psi_bgrp                   4       1.09 s        0.50       0.00     272.88 ms     270.97 ms     275.90 ms
│ │         │   └ h_psi                      4       1.09 s        0.50       0.45     272.88 ms     270.97 ms     275.90 ms
│ │         │     └ h_psi:pot                4       1.09 s        0.50       0.01     271.65 ms     269.77 ms     274.66 ms
│ │         │       ├ vloc_psi               4     777.01 ms       0.35       7.41     193.12 ms     192.97 ms     197.80 ms
│ │         │       │ └ fftw              2088     719.45 ms       0.33      28.40     376.52 us     260.48 us       2.02 ms
│ │         │       │   └ fft_scatter     2088     515.10 ms       0.24     100.00     283.92 us     159.28 us       1.81 ms
│ │         │       ├ h_psi:calbec           4     157.55 ms       0.07       0.02      37.98 ms      37.70 ms      43.88 ms
│ │         │       │ └ calbec               4     157.52 ms       0.07     100.00      37.98 ms      37.69 ms      43.87 ms
│ │         │       └ add_vuspsi             4     153.09 ms       0.07     100.00      38.23 ms      37.78 ms      38.85 ms
│ │         ├ protwfck:hc                    4     221.94 ms       0.10      29.28      54.60 ms      53.58 ms      59.16 ms
│ │         │ └ s_psi_bgrp                   4     156.96 ms       0.07       3.01      39.26 ms      38.81 ms      39.63 ms
│ │         │   └ s_psi                      4     152.23 ms       0.07     100.00      38.08 ms      37.64 ms      38.43 ms
│ │         ├ protwfck:diag                  4     983.02 ms       0.45       0.00     240.74 ms     233.80 ms     267.75 ms
│ │         │ └ cdiaghg                      4     983.00 ms       0.45      86.62     240.73 ms     233.80 ms     267.74 ms
│ │         │   ├ cdiaghg:choldc             4      30.66 ms       0.01     100.00       3.48 ms       1.67 ms      22.03 ms
│ │         │   ├ cdiaghg:inversion          4       3.18 ms       0.00     100.00     802.83 us     747.53 us     824.61 us
│ │         │   └ cdiaghg:paragemm           8      97.67 ms       0.04     100.00       4.03 ms       1.21 ms      60.79 ms
│ │         └ protwfck:evc                   4      41.77 ms       0.02     100.00       9.45 ms       7.97 ms      14.90 ms
│ ├ electrons                                1     163.56 s       74.64       0.30     163.56 s      163.56 s      163.56 s 
│ │ ├ c_bands                               16      86.55 s       39.50       1.76       3.98 s        3.10 s       11.92 s 
│ │ │ ├ init_us_2                           64       1.03 s        0.47       0.09      16.06 ms      15.31 ms      16.80 ms
│ │ │ │ └ init_us_2:cpu                     64       1.03 s        0.47     100.00      16.05 ms      15.30 ms      16.79 ms
│ │ │ └ cegterg                             65      84.00 s       38.33       0.90     965.05 ms     724.13 ms       4.43 s 
│ │ │   ├ h_psi_bgrp                       385      29.97 s       13.68       0.01      39.02 ms       6.11 ms     182.24 ms
│ │ │   │ └ h_psi                          385      29.96 s       13.67       0.44      39.01 ms       6.10 ms     182.24 ms
│ │ │   │   └ h_psi:pot                    385      29.83 s       13.61       0.02      38.94 ms       6.07 ms     181.41 ms
│ │ │   │     ├ vloc_psi                   385      20.96 s        9.57       7.23      27.10 ms       2.27 ms     131.57 ms
│ │ │   │     │ └ fftw                   54722      19.45 s        8.88      27.69     374.90 us     250.13 us       3.63 ms
│ │ │   │     │   └ fft_scatter          54722      14.06 s        6.42     100.00     282.56 us     149.36 us       3.41 ms
│ │ │   │     ├ h_psi:calbec               385       4.42 s        2.02       0.09       5.49 ms       1.95 ms      28.62 ms
│ │ │   │     │ └ calbec                   385       4.42 s        2.02     100.00       5.48 ms       1.94 ms      28.62 ms
│ │ │   │     └ add_vuspsi                 385       4.44 s        2.03     100.00       6.39 ms       1.77 ms      25.53 ms
│ │ │   ├ s_psi_bgrp                       385       4.55 s        2.08       3.00       6.55 ms       1.83 ms      26.12 ms
│ │ │   │ └ s_psi                          385       4.41 s        2.01     100.00       6.43 ms       1.81 ms      25.29 ms
│ │ │   ├ cegterg:init                      65     412.13 ms       0.19     100.00       6.19 ms       5.53 ms       8.45 ms
│ │ │   ├ cegterg:update                   320       1.02 s        0.47     100.00       2.26 ms     657.42 us       9.32 ms
│ │ │   ├ g_psi                            320      89.78 ms       0.04     100.00      93.52 us       9.27 us     920.74 us
│ │ │   ├ cegterg:overlap                  320       1.75 s        0.80     100.00       2.33 ms     791.85 us      18.55 ms
│ │ │   ├ cegterg:diag                     377      43.38 s       19.80       0.00      22.56 ms      11.11 ms     307.71 ms
│ │ │   │ └ cdiaghg                        377      43.38 s       19.79      93.87      22.55 ms      11.11 ms     307.70 ms
│ │ │   │   ├ cdiaghg:choldc               377     339.12 ms       0.15     100.00     640.71 us     308.24 us       4.39 ms
│ │ │   │   ├ cdiaghg:inversion            377     194.02 ms       0.09     100.00     299.44 us     106.87 us       1.20 ms
│ │ │   │   └ cdiaghg:paragemm             754       2.13 s        0.97     100.00     983.54 us     285.47 us     106.36 ms
│ │ │   └ cegterg:last                     143       2.07 s        0.95     100.00      21.26 ms       3.04 ms      26.56 ms
│ │ ├ sum_band                              16      35.25 s       16.09       0.17       2.19 s        2.18 s        2.26 s 
│ │ │ ├ sum_band:weights                    16       1.12 ms       0.00     100.00      68.24 us      55.45 us      94.17 us
│ │ │ ├ sum_band:loop                       16       7.30 s        3.33       5.25     453.73 ms     448.64 ms     478.86 ms
│ │ │ │ ├ sum_band:buffer                   64     151.28 ms       0.07     100.00       2.36 ms       2.28 ms       2.50 ms
│ │ │ │ ├ sum_band:init_us_2                64       1.02 s        0.46       0.02      15.83 ms      15.44 ms      16.75 ms
│ │ │ │ │ └ init_us_2                       64       1.02 s        0.46       0.07      15.83 ms      15.44 ms      16.74 ms
│ │ │ │ │   └ init_us_2:cpu                 64       1.02 s        0.46     100.00      15.82 ms      15.43 ms      16.73 ms
│ │ │ │ ├ fftw                           10240       4.14 s        1.89      23.45     385.56 us     363.06 us       3.69 ms
│ │ │ │ │ └ fft_scatter                  10240       3.17 s        1.45     100.00     291.01 us     266.51 us       3.50 ms
│ │ │ │ ├ sum_band:calbec                   64       1.54 s        0.70       0.04      24.03 ms      23.07 ms      25.87 ms
│ │ │ │ │ └ calbec                          64       1.54 s        0.70     100.00      24.02 ms      23.06 ms      25.87 ms
│ │ │ │ └ sum_band:becsum                   64      69.72 ms       0.03     100.00       1.09 ms     989.12 us       1.20 ms
│ │ │ ├ ffts                                16      13.94 ms       0.01      19.76     850.62 us     783.36 us       1.00 ms
│ │ │ │ └ fft_scatter                       16      11.19 ms       0.01     100.00     681.64 us     605.28 us     839.66 us
│ │ │ ├ addusdens                           16      26.88 s       12.27      21.64       1.67 s        1.65 s        1.75 s 
│ │ │ │ ├ addusd:skk                        32     503.81 ms       0.23     100.00      15.61 ms     594.68 us      31.08 ms
│ │ │ │ ├ addusd:dgemm                      32       4.01 s        1.83     100.00     124.37 ms     115.59 ms     137.26 ms
│ │ │ │ └ addusd:qvan2                      32      16.55 s        7.55     100.00     513.36 ms     496.74 ms     568.57 ms
│ │ │ └ sum_band:sym_rho                    16     994.91 ms       0.45      85.13      56.17 ms      46.62 ms      96.06 ms
│ │ │   └ fft                               16     147.92 ms       0.07      17.23       9.17 ms       8.92 ms      10.70 ms
│ │ │     └ fft_scatter                     16     122.43 ms       0.06     100.00       7.55 ms       7.32 ms       9.12 ms
│ │ ├ mix_rho                               16     539.36 ms       0.25      52.01      38.22 ms     505.28 us      42.44 ms
│ │ │ └ fft                                 28     258.82 ms       0.12      16.82       9.20 ms       8.90 ms       9.68 ms
│ │ │   └ fft_scatter                       28     215.28 ms       0.10     100.00       7.66 ms       7.36 ms       8.11 ms
│ │ ├ v_of_rho                              15       9.75 s        4.45       0.00     643.80 ms     638.98 ms     688.27 ms
│ │ │ ├ v_xc                                15       9.45 s        4.31      87.65     623.47 ms     618.70 ms     668.04 ms
│ │ │ │ └ fft                              105       1.17 s        0.53      13.99       9.06 ms       7.66 ms      59.95 ms
│ │ │ │   └ fft_scatter                    105       1.00 s        0.46     100.00       7.57 ms       6.22 ms      58.42 ms
│ │ │ └ v_h                                 15     301.15 ms       0.14      41.22      20.11 ms      19.76 ms      20.38 ms
│ │ │   └ fft                               15     177.03 ms       0.08      12.96      11.77 ms      11.44 ms      12.11 ms
│ │ │     └ fft_scatter                     15     154.09 ms       0.07     100.00      10.26 ms       9.94 ms      10.59 ms
│ │ ├ interpolate                           15     172.35 ms       0.08      21.15      11.45 ms      11.35 ms      11.72 ms
│ │ │ ├ fft                                 15     122.84 ms       0.06      16.84       8.13 ms       8.06 ms       8.42 ms
│ │ │ │ └ fft_scatter                       15     102.15 ms       0.05     100.00       6.77 ms       6.69 ms       7.03 ms
│ │ │ └ ffts                                15      13.06 ms       0.01      14.58     869.16 us     840.82 us     906.49 us
│ │ │   └ fft_scatter                       15      11.15 ms       0.01     100.00     740.73 us     713.66 us     780.86 us
│ │ └ newd                                  15      30.80 s       14.06      99.29       2.05 s        2.04 s        2.09 s 
│ │   └ fft                                 15     217.77 ms       0.10       9.13      11.36 ms       9.86 ms      37.01 ms
│ │     └ fft_scatter                       15     197.88 ms       0.09     100.00      10.00 ms       8.53 ms      35.71 ms
│ └ ions                                     1      44.45 s       20.28       0.00      44.45 s       44.45 s       44.45 s 
│   ├ forces                                 1       4.24 s        1.94       2.49       4.24 s        4.24 s        4.24 s 
│   │ ├ frc_us                               1       3.00 s        1.37      85.04       3.00 s        3.00 s        3.00 s 
│   │ │ ├ init_us_2                          4      63.13 ms       0.03       0.11      15.81 ms      15.66 ms      15.85 ms
│   │ │ │ └ init_us_2:cpu                    4      63.06 ms       0.03     100.00      15.79 ms      15.64 ms      15.84 ms
│   │ │ ├ calbec                            16     375.92 ms       0.17     100.00      23.19 ms      22.61 ms      25.25 ms
│   │ │ └ fft                                1      10.30 ms       0.00      13.79      10.30 ms      10.30 ms      10.30 ms
│   │ │   └ fft_scatter                      1       8.88 ms       0.00     100.00       8.88 ms       8.88 ms       8.88 ms
│   │ ├ frc_lc                               1     131.86 ms       0.06      92.58     131.86 ms     131.86 ms     131.86 ms
│   │ │ └ fft                                1       9.79 ms       0.00      13.78       9.79 ms       9.79 ms       9.79 ms
│   │ │   └ fft_scatter                      1       8.44 ms       0.00     100.00       8.44 ms       8.44 ms       8.44 ms
│   │ ├ frc_cc                               1     817.74 ms       0.37      22.50     817.74 ms     817.74 ms     817.74 ms
│   │ │ ├ v_xc                               1     622.45 ms       0.28      88.15     622.45 ms     622.45 ms     622.45 ms
│   │ │ │ └ fft                              7      73.74 ms       0.03      14.73       9.56 ms       8.03 ms      15.11 ms
│   │ │ │   └ fft_scatter                    7      62.88 ms       0.03     100.00       8.05 ms       6.61 ms      13.19 ms
│   │ │ └ fft                                1      11.30 ms       0.01      12.58      11.30 ms      11.30 ms      11.30 ms
│   │ │   └ fft_scatter                      1       9.88 ms       0.00     100.00       9.88 ms       9.88 ms       9.88 ms
│   │ └ frc_scc                              1     184.44 ms       0.08      94.81     184.44 ms     184.44 ms     184.44 ms
│   │   └ fft                                1       9.57 ms       0.00      14.89       9.57 ms       9.57 ms       9.57 ms
│   │     └ fft_scatter                      1       8.15 ms       0.00     100.00       8.15 ms       8.15 ms       8.15 ms
│   └ stress                                 1      40.21 s       18.35      97.22      40.21 s       40.21 s       40.21 s 
│     ├ fft                                  7      72.70 ms       0.03      14.80       9.49 ms       8.38 ms      13.74 ms
│     │ └ fft_scatter                        7      61.94 ms       0.03     100.00       8.11 ms       6.94 ms      11.78 ms
│     ├ v_xc                                 1     630.05 ms       0.29      88.16     630.05 ms     630.05 ms     630.05 ms
│     │ └ fft                                7      74.57 ms       0.03      15.27       9.27 ms       8.12 ms      15.96 ms
│     │   └ fft_scatter                      7      63.18 ms       0.03     100.00       7.75 ms       6.64 ms      14.04 ms
│     ├ init_us_2                            4      63.40 ms       0.03       0.09      15.80 ms      15.51 ms      16.28 ms
│     │ └ init_us_2:cpu                      4      63.34 ms       0.03     100.00      15.79 ms      15.50 ms      16.27 ms
│     ├ calbec                               4     137.58 ms       0.06     100.00      24.48 ms      23.06 ms      65.55 ms
│     ├ stres_us31                           4     197.19 us       0.00     100.00      50.28 us      39.23 us      57.41 us
│     ├ stres_us32                           4       3.26 ms       0.00     100.00     810.69 us     787.31 us     852.25 us
│     ├ stres_us33                           4       6.49 ms       0.00     100.00       1.62 ms       1.61 ms       1.64 ms
│     └ stres_us34                           4     203.88 ms       0.09     100.00      50.68 ms      49.36 ms      53.16 ms
└ sirius::finalize                           1     134.09 ms       0.06     100.00     134.09 ms     134.09 ms     134.09 ms

============================================================================================================================
===========================================================================================================
                            #         Total          %     Self %        Median           Min           Max
-----------------------------------------------------------------------------------------------------------
sirius                      1     219.14 s      100.00       0.00     219.14 s      219.14 s      219.14 s 
├ PWSCF                     1     217.31 s       99.17     100.00     217.31 s      217.31 s      217.31 s 
├ electrons                 1     163.56 s       74.64     100.00     163.56 s      163.56 s      163.56 s 
├ c_bands                  16      86.55 s       39.50     100.00       3.98 s        3.10 s       11.92 s 
├ cegterg                  65      84.00 s       38.33     100.00     965.05 ms     724.13 ms       4.43 s 
├ ions                      1      44.45 s       20.28     100.00      44.45 s       44.45 s       44.45 s 
├ cdiaghg                 381      44.36 s       20.24     100.00      22.72 ms      11.11 ms     307.70 ms
├ cegterg:diag            377      43.38 s       19.80     100.00      22.56 ms      11.11 ms     307.71 ms
├ stress                    1      40.21 s       18.35     100.00      40.21 s       40.21 s       40.21 s 
├ sum_band                 16      35.25 s       16.09     100.00       2.19 s        2.18 s        2.26 s 
├ newd                     16      32.87 s       15.00     100.00       2.05 s        2.04 s        2.09 s 
├ h_psi_bgrp              389      31.06 s       14.17     100.00      46.79 ms       6.11 ms     275.90 ms
├ h_psi                   389      31.06 s       14.17     100.00      46.79 ms       6.10 ms     275.90 ms
├ h_psi:pot               389      30.92 s       14.11     100.00      46.69 ms       6.07 ms     274.66 ms
├ addusdens                16      26.88 s       12.27     100.00       1.67 s        1.65 s        1.75 s 
├ fftw                  67050      24.31 s       11.09     100.00     379.68 us     250.13 us       3.69 ms
├ vloc_psi                389      21.74 s        9.92     100.00      32.44 ms       2.27 ms     197.80 ms
├ fft_scatter           67314      19.91 s        9.09     100.00     286.19 us     149.36 us      58.42 ms
├ addusd:qvan2             32      16.55 s        7.55     100.00     513.36 ms     496.74 ms     568.57 ms
├ v_xc                     18      11.34 s        5.18     100.00     623.48 ms     618.70 ms     668.04 ms
├ v_of_rho                 16      10.42 s        4.75     100.00     643.84 ms     638.98 ms     688.27 ms
├ sum_band:loop            16       7.30 s        3.33     100.00     453.73 ms     448.64 ms     478.86 ms
├ init_run                  1       6.93 s        3.16     100.00       6.93 s        6.93 s        6.93 s 
├ calbec                  473       6.63 s        3.03     100.00      14.65 ms       1.94 ms      65.55 ms
├ s_psi_bgrp              389       4.71 s        2.15     100.00       7.32 ms       1.83 ms      39.63 ms
├ add_vuspsi              389       4.59 s        2.10     100.00       7.40 ms       1.77 ms      38.85 ms
├ h_psi:calbec            389       4.58 s        2.09     100.00       6.84 ms       1.95 ms      43.88 ms
├ s_psi                   389       4.57 s        2.08     100.00       7.16 ms       1.81 ms      38.43 ms
├ forces                    1       4.24 s        1.94     100.00       4.24 s        4.24 s        4.24 s 
├ addusd:dgemm             32       4.01 s        1.83     100.00     124.37 ms     115.59 ms     137.26 ms
├ frc_us                    1       3.00 s        1.37     100.00       3.00 s        3.00 s        3.00 s 
├ wfcinit                   1       2.80 s        1.28     100.00       2.80 s        2.80 s        2.80 s 
├ fft                     232       2.56 s        1.17     100.00       9.22 ms       7.66 ms      75.11 ms
├ wfcinit:wfcrot            4       2.37 s        1.08     100.00     586.09 ms     573.33 ms     626.40 ms
├ wfcrot                    4       2.37 s        1.08     100.00     586.08 ms     573.32 ms     626.39 ms
├ protwfck                  4       2.37 s        1.08     100.00     586.08 ms     573.32 ms     626.38 ms
├ init_us_2               140       2.27 s        1.03     100.00      15.90 ms      15.31 ms      48.71 ms
├ init_us_2:cpu           140       2.27 s        1.03     100.00      15.89 ms      15.30 ms      48.70 ms
├ cdiaghg:paragemm        762       2.23 s        1.02     100.00     993.59 us     285.47 us     106.36 ms
├ cegterg:last            143       2.07 s        0.95     100.00      21.26 ms       3.04 ms      26.56 ms
├ cegterg:overlap         320       1.75 s        0.80     100.00       2.33 ms     791.85 us      18.55 ms
├ sirius::initialize        1       1.69 s        0.77     100.00       1.69 s        1.69 s        1.69 s 
├ sum_band:calbec          64       1.54 s        0.70     100.00      24.03 ms      23.07 ms      25.87 ms
├ protwfck:hpsi             4       1.09 s        0.50     100.00     272.88 ms     270.98 ms     275.91 ms
├ cegterg:update          320       1.02 s        0.47     100.00       2.26 ms     657.42 us       9.32 ms
├ sum_band:init_us_2       64       1.02 s        0.46     100.00      15.83 ms      15.44 ms      16.75 ms
├ sum_band:sym_rho         16     994.91 ms       0.45     100.00      56.17 ms      46.62 ms      96.06 ms
├ protwfck:diag             4     983.02 ms       0.45     100.00     240.74 ms     233.80 ms     267.75 ms
├ frc_cc                    1     817.74 ms       0.37     100.00     817.74 ms     817.74 ms     817.74 ms
├ potinit                   1     720.84 ms       0.33     100.00     720.84 ms     720.84 ms     720.84 ms
├ hinit0                    1     608.48 ms       0.28     100.00     608.48 ms     608.48 ms     608.48 ms
├ mix_rho                  16     539.36 ms       0.25     100.00      38.22 ms     505.28 us      42.44 ms
├ addusd:skk               32     503.81 ms       0.23     100.00      15.61 ms     594.68 us      31.08 ms
├ cegterg:init             65     412.13 ms       0.19     100.00       6.19 ms       5.53 ms       8.45 ms
├ cdiaghg:choldc          381     369.77 ms       0.17     100.00     644.00 us     308.24 us      22.03 ms
├ v_h                      16     324.02 ms       0.15     100.00      20.14 ms      19.76 ms      22.87 ms
├ init_us_1                 1     296.04 ms       0.14     100.00     296.04 ms     296.04 ms     296.04 ms
├ protwfck:hc               4     221.94 ms       0.10     100.00      54.60 ms      53.58 ms      59.16 ms
├ stres_us34                4     203.88 ms       0.09     100.00      50.68 ms      49.36 ms      53.16 ms
├ cdiaghg:inversion       381     197.20 ms       0.09     100.00     300.49 us     106.87 us       1.20 ms
├ frc_scc                   1     184.44 ms       0.08     100.00     184.44 ms     184.44 ms     184.44 ms
├ interpolate              16     184.21 ms       0.08     100.00      11.48 ms      11.35 ms      11.86 ms
├ sum_band:buffer          64     151.28 ms       0.07     100.00       2.36 ms       2.28 ms       2.50 ms
├ sirius::finalize          1     134.09 ms       0.06     100.00     134.09 ms     134.09 ms     134.09 ms
├ frc_lc                    1     131.86 ms       0.06     100.00     131.86 ms     131.86 ms     131.86 ms
├ init_vloc                 1     124.37 ms       0.06     100.00     124.37 ms     124.37 ms     124.37 ms
├ g_psi                   320      89.78 ms       0.04     100.00      93.52 us       9.27 us     920.74 us
├ sum_band:becsum          64      69.72 ms       0.03     100.00       1.09 ms     989.12 us       1.20 ms
├ wfcinit:atomic            4      42.02 ms       0.02     100.00       9.46 ms       7.83 ms      15.27 ms
├ atomic_wfc                4      41.99 ms       0.02     100.00       9.45 ms       7.82 ms      15.26 ms
├ protwfck:evc              4      41.77 ms       0.02     100.00       9.45 ms       7.97 ms      14.90 ms
├ ffts                     32      27.96 ms       0.01     100.00     861.36 us     783.36 us       1.00 ms
├ stres_us33                4       6.49 ms       0.00     100.00       1.62 ms       1.61 ms       1.64 ms
├ stres_us32                4       3.26 ms       0.00     100.00     810.69 us     787.31 us     852.25 us
├ sum_band:weights         16       1.12 ms       0.00     100.00      68.24 us      55.45 us      94.17 us
└ stres_us31                4     197.19 us       0.00     100.00      50.28 us      39.23 us      57.41 us

===========================================================================================================


Batch Job Summary Report (version 21.01.1) for Job "rfm_qe_Si63Ge_scf_native__1__4__job" (35607424) on daint

Job information (1/2)
-----------------------------------------------------------------------------------------------------
             Submit            Eligible               Start                 End    Elapsed Time limit
------------------- ------------------- ------------------- ------------------- ---------- ----------
2021-12-21T13:36:45 2021-12-21T13:36:45 2021-12-21T13:46:14 2021-12-21T13:50:22   00:04:08   00:10:00
-----------------------------------------------------------------------------------------------------

Job information (2/2)
-------------------------------------------------------------
    Username      Account    Partition   NNodes        Energy
------------ ------------ ------------ -------- -------------
      antonk      csstaff       normal        4 not available kJ



Batch Job Summary Report (version 21.01.1) for Job "rfm_qe_Si63Ge_scf_native__1__4__job" (35607424) on daint

Job information (1/2)
-----------------------------------------------------------------------------------------------------
             Submit            Eligible               Start                 End    Elapsed Time limit
------------------- ------------------- ------------------- ------------------- ---------- ----------
2021-12-21T13:36:45 2021-12-21T13:36:45 2021-12-21T13:46:14 2021-12-21T13:50:22   00:04:08   00:10:00
-----------------------------------------------------------------------------------------------------

Job information (2/2)
-------------------------------------------------------------
    Username      Account    Partition   NNodes        Energy
------------ ------------ ------------ -------- -------------
      antonk      csstaff       normal        2    124.112 kJ

