
     Program PWSCF v.6.4.1 starts on  8Apr2020 at 14:38: 3 

     This program is part of the open-source Quantum ESPRESSO suite
     for quantum simulation of materials; please cite
         "P. Giannozzi et al., J. Phys.:Condens. Matter 21 395502 (2009);
         "P. Giannozzi et al., J. Phys.:Condens. Matter 29 465901 (2017);
          URL http://www.quantum-espresso.org", 
     in publications or presentations arising from this work. More details at
     http://www.quantum-espresso.org/quote

     Parallel version (MPI & OpenMP), running on      48 processor cores
     Number of MPI processes:                 4
     Threads/MPI process:                    12

     MPI processes distributed on     4 nodes
     K-points division:     npool     =       4
     Reading input from pw.in
     Message from routine read_cards :
     DEPRECATED: no units specified in CELL_PARAMETERS card

     Current dimensions of program PWSCF are:
     Max number of different atomic species (ntypx) = 10
     Max number of k-points (npk) =  40000
     Max angular momentum in pseudopotentials (lmaxx) =  3
     Message from routine cell_base_init:
     DEPRECATED: use true lattice parameter, not A to a.u. conversion factor

     Subspace diagonalization in iterative solution of the eigenvalue problem:
     a serial algorithm will be used

     Message from routine setup:
     DEPRECATED: symmetry with ibrav=0, use correct ibrav instead
 
     G-vector sticks info
     --------------------
     sticks:   dense  smooth     PW     G-vecs:    dense   smooth      PW
     Sum       20097    4017   1101              2145465   191735   27609
 


     bravais-lattice index     =            0
     lattice parameter (alat)  =       1.0000  a.u.
     unit-cell volume          =    8646.7719 (a.u.)^3
     number of atoms/cell      =           64
     number of atomic types    =            2
     number of electrons       =       266.00
     number of Kohn-Sham states=          160
     kinetic-energy cutoff     =      30.0000  Ry
     charge density cutoff     =     600.0000  Ry
     convergence threshold     =      1.0E-09
     mixing beta               =       0.7000
     number of iterations used =            8  plain     mixing
     Exchange-correlation      =  SLA  PW   PBX  PBC ( 1  4  3  4 0 0)

     celldm(1)=   1.000000  celldm(2)=   0.000000  celldm(3)=   0.000000
     celldm(4)=   0.000000  celldm(5)=   0.000000  celldm(6)=   0.000000

     crystal axes: (cart. coord. in units of alat)
               a(1) = (  20.525071   0.000000   0.000000 )  
               a(2) = (   0.000000  20.525071   0.000000 )  
               a(3) = (   0.000000   0.000000  20.525071 )  

     reciprocal axes: (cart. coord. in units 2 pi/alat)
               b(1) = (  0.048721  0.000000  0.000000 )  
               b(2) = (  0.000000  0.048721  0.000000 )  
               b(3) = (  0.000000  0.000000  0.048721 )  


     PseudoPot. # 1 for Si read from file:
     ./Si.pbe-n-rrkjus_psl.1.0.0.UPF
     MD5 check sum: 0b0bb1205258b0d07b9f9672cf965d36
     Pseudo is Ultrasoft + core correction, Zval =  4.0
     Generated using "atomic" code by A. Dal Corso v.5.1
     Using radial grid of 1141 points,  6 beta functions with: 
                l(1) =   0
                l(2) =   0
                l(3) =   1
                l(4) =   1
                l(5) =   2
                l(6) =   2
     Q(r) pseudized with 0 coefficients 


     PseudoPot. # 2 for Ge read from file:
     ./ge_pbe_v1.4.uspp.F.UPF
     MD5 check sum: 9c9eaa91e581c3f09632fb3098b2c6b2
     Pseudo is Ultrasoft + core correction, Zval = 14.0
     Generated by new atomic code, or converted to UPF format
     Using radial grid of  873 points,  6 beta functions with: 
                l(1) =   0
                l(2) =   0
                l(3) =   1
                l(4) =   1
                l(5) =   2
                l(6) =   2
     Q(r) pseudized with  8 coefficients,  rinner =    1.400   1.400   1.400
                                                       1.400   1.400

     atomic species   valence    mass     pseudopotential
        Si             4.00    28.08550     Si( 1.00)
        Ge            14.00    72.61000     Ge( 1.00)

     24 Sym. Ops. (no inversion) found



   Cartesian axes

     site n.     atom                  positions (alat units)
         1           Ge  tau(   1) = (   0.0000000   0.0000000   0.0000000  )
         2           Si  tau(   2) = (   0.0000000   0.0000000  10.2625355  )
         3           Si  tau(   3) = (   0.0000000  10.2625355   0.0000000  )
         4           Si  tau(   4) = (   0.0000000  10.2625355  10.2625355  )
         5           Si  tau(   5) = (  10.2625355   0.0000000   0.0000000  )
         6           Si  tau(   6) = (  10.2625355   0.0000000  10.2625355  )
         7           Si  tau(   7) = (  10.2625355  10.2625355   0.0000000  )
         8           Si  tau(   8) = (  10.2625355  10.2625355  10.2625355  )
         9           Si  tau(   9) = (   0.0000000   5.1312678   5.1312678  )
        10           Si  tau(  10) = (   0.0000000   5.1312678  15.3938033  )
        11           Si  tau(  11) = (   0.0000000  15.3938033   5.1312678  )
        12           Si  tau(  12) = (   0.0000000  15.3938033  15.3938033  )
        13           Si  tau(  13) = (  10.2625355   5.1312678   5.1312678  )
        14           Si  tau(  14) = (  10.2625355   5.1312678  15.3938033  )
        15           Si  tau(  15) = (  10.2625355  15.3938033   5.1312678  )
        16           Si  tau(  16) = (  10.2625355  15.3938033  15.3938033  )
        17           Si  tau(  17) = (   5.1312678   0.0000000   5.1312678  )
        18           Si  tau(  18) = (   5.1312678   0.0000000  15.3938033  )
        19           Si  tau(  19) = (   5.1312678  10.2625355   5.1312678  )
        20           Si  tau(  20) = (   5.1312678  10.2625355  15.3938033  )
        21           Si  tau(  21) = (  15.3938033   0.0000000   5.1312678  )
        22           Si  tau(  22) = (  15.3938033   0.0000000  15.3938033  )
        23           Si  tau(  23) = (  15.3938033  10.2625355   5.1312678  )
        24           Si  tau(  24) = (  15.3938033  10.2625355  15.3938033  )
        25           Si  tau(  25) = (   5.1312678   5.1312678   0.0000000  )
        26           Si  tau(  26) = (   5.1312678   5.1312678  10.2625355  )
        27           Si  tau(  27) = (   5.1312678  15.3938033   0.0000000  )
        28           Si  tau(  28) = (   5.1312678  15.3938033  10.2625355  )
        29           Si  tau(  29) = (  15.3938033   5.1312678   0.0000000  )
        30           Si  tau(  30) = (  15.3938033   5.1312678  10.2625355  )
        31           Si  tau(  31) = (  15.3938033  15.3938033   0.0000000  )
        32           Si  tau(  32) = (  15.3938033  15.3938033  10.2625355  )
        33           Si  tau(  33) = (   7.6969016   7.6969016   2.5656339  )
        34           Si  tau(  34) = (   7.6969016   7.6969016  12.8281694  )
        35           Si  tau(  35) = (   7.6969016  17.9594371   2.5656339  )
        36           Si  tau(  36) = (   7.6969016  17.9594371  12.8281694  )
        37           Si  tau(  37) = (  17.9594371   7.6969016   2.5656339  )
        38           Si  tau(  38) = (  17.9594371   7.6969016  12.8281694  )
        39           Si  tau(  39) = (  17.9594371  17.9594371   2.5656339  )
        40           Si  tau(  40) = (  17.9594371  17.9594371  12.8281694  )
        41           Si  tau(  41) = (   7.6969016   2.5656339   7.6969016  )
        42           Si  tau(  42) = (   7.6969016   2.5656339  17.9594371  )
        43           Si  tau(  43) = (   7.6969016  12.8281694   7.6969016  )
        44           Si  tau(  44) = (   7.6969016  12.8281694  17.9594371  )
        45           Si  tau(  45) = (  17.9594371   2.5656339   7.6969016  )
        46           Si  tau(  46) = (  17.9594371   2.5656339  17.9594371  )
        47           Si  tau(  47) = (  17.9594371  12.8281694   7.6969016  )
        48           Si  tau(  48) = (  17.9594371  12.8281694  17.9594371  )
        49           Si  tau(  49) = (   2.5656339   7.6969016   7.6969016  )
        50           Si  tau(  50) = (   2.5656339   7.6969016  17.9594371  )
        51           Si  tau(  51) = (   2.5656339  17.9594371   7.6969016  )
        52           Si  tau(  52) = (   2.5656339  17.9594371  17.9594371  )
        53           Si  tau(  53) = (  12.8281694   7.6969016   7.6969016  )
        54           Si  tau(  54) = (  12.8281694   7.6969016  17.9594371  )
        55           Si  tau(  55) = (  12.8281694  17.9594371   7.6969016  )
        56           Si  tau(  56) = (  12.8281694  17.9594371  17.9594371  )
        57           Si  tau(  57) = (   2.5656339   2.5656339   2.5656339  )
        58           Si  tau(  58) = (   2.5656339   2.5656339  12.8281694  )
        59           Si  tau(  59) = (   2.5656339  12.8281694   2.5656339  )
        60           Si  tau(  60) = (   2.5656339  12.8281694  12.8281694  )
        61           Si  tau(  61) = (  12.8281694   2.5656339   2.5656339  )
        62           Si  tau(  62) = (  12.8281694   2.5656339  12.8281694  )
        63           Si  tau(  63) = (  12.8281694  12.8281694   2.5656339  )
        64           Si  tau(  64) = (  12.8281694  12.8281694  12.8281694  )

     number of k points=     4  gaussian smearing, width (Ry)=  0.0020
                       cart. coord. in units 2pi/alat
        k(    1) = (   0.0000000   0.0000000   0.0000000), wk =   0.2500000
        k(    2) = (   0.0000000   0.0000000  -0.0243605), wk =   0.7500000
        k(    3) = (   0.0000000  -0.0243605  -0.0243605), wk =   0.7500000
        k(    4) = (  -0.0243605  -0.0243605  -0.0243605), wk =   0.2500000

     Dense  grid:  2145465 G-vectors     FFT dimensions: ( 162, 162, 162)

     Smooth grid:   191735 G-vectors     FFT dimensions: (  72,  72,  72)

     Estimated max dynamical RAM per process >       4.70 GB

     Estimated total dynamical RAM >      18.79 GB

     Initial potential from superposition of free atoms

     starting charge  265.96390, renormalised to  266.00000
     Starting wfcs are  261 randomized atomic wfcs

     total cpu time spent up to now is       11.5 secs

     Self-consistent Calculation

     iteration #  1     ecut=    30.00 Ry     beta= 0.70
     Davidson diagonalization with overlap
     ethr =  1.00E-02,  avg # of iterations =  3.0

     Threshold (ethr) on eigenvalues was too large:
     Diagonalizing with lowered threshold

     Davidson diagonalization with overlap
     ethr =  6.72E-04,  avg # of iterations =  2.0

     total cpu time spent up to now is       30.9 secs

     total energy              =    -932.97802239 Ry
     Harris-Foulkes estimate   =    -933.41199398 Ry
     estimated scf accuracy    <       1.77464157 Ry

     iteration #  2     ecut=    30.00 Ry     beta= 0.70
     Davidson diagonalization with overlap
     ethr =  6.67E-04,  avg # of iterations =  1.0

     total cpu time spent up to now is       41.4 secs

     total energy              =    -933.04397165 Ry
     Harris-Foulkes estimate   =    -933.05183236 Ry
     estimated scf accuracy    <       0.08150860 Ry

     iteration #  3     ecut=    30.00 Ry     beta= 0.70
     Davidson diagonalization with overlap
     ethr =  3.06E-05,  avg # of iterations =  9.0

     total cpu time spent up to now is       55.7 secs

     total energy              =    -933.05260483 Ry
     Harris-Foulkes estimate   =    -933.06312324 Ry
     estimated scf accuracy    <       0.01903816 Ry

     iteration #  4     ecut=    30.00 Ry     beta= 0.70
     Davidson diagonalization with overlap
     ethr =  7.16E-06,  avg # of iterations = 10.0

     total cpu time spent up to now is       69.5 secs

     total energy              =    -933.05473952 Ry
     Harris-Foulkes estimate   =    -933.06481325 Ry
     estimated scf accuracy    <       0.03239539 Ry

     iteration #  5     ecut=    30.00 Ry     beta= 0.70
     Davidson diagonalization with overlap
     ethr =  7.16E-06,  avg # of iterations =  8.0

     total cpu time spent up to now is       82.7 secs

     total energy              =    -933.05922075 Ry
     Harris-Foulkes estimate   =    -933.06053465 Ry
     estimated scf accuracy    <       0.00353587 Ry

     iteration #  6     ecut=    30.00 Ry     beta= 0.70
     Davidson diagonalization with overlap
     ethr =  1.33E-06,  avg # of iterations =  4.0

     total cpu time spent up to now is       94.7 secs

     total energy              =    -933.05988629 Ry
     Harris-Foulkes estimate   =    -933.05998900 Ry
     estimated scf accuracy    <       0.00028989 Ry

     iteration #  7     ecut=    30.00 Ry     beta= 0.70
     Davidson diagonalization with overlap
     ethr =  1.09E-07,  avg # of iterations =  3.0

     total cpu time spent up to now is      106.3 secs

     total energy              =    -933.05993039 Ry
     Harris-Foulkes estimate   =    -933.05994078 Ry
     estimated scf accuracy    <       0.00003046 Ry

     iteration #  8     ecut=    30.00 Ry     beta= 0.70
     Davidson diagonalization with overlap
     ethr =  1.15E-08,  avg # of iterations =  3.0

     total cpu time spent up to now is      118.1 secs

     total energy              =    -933.05993587 Ry
     Harris-Foulkes estimate   =    -933.05993641 Ry
     estimated scf accuracy    <       0.00000178 Ry

     iteration #  9     ecut=    30.00 Ry     beta= 0.70
     Davidson diagonalization with overlap
     ethr =  6.70E-10,  avg # of iterations =  3.5

     total cpu time spent up to now is      130.8 secs

     total energy              =    -933.05993663 Ry
     Harris-Foulkes estimate   =    -933.05993674 Ry
     estimated scf accuracy    <       0.00000082 Ry

     iteration # 10     ecut=    30.00 Ry     beta= 0.70
     Davidson diagonalization with overlap
     ethr =  3.10E-10,  avg # of iterations =  2.0

     total cpu time spent up to now is      141.6 secs

     total energy              =    -933.05993662 Ry
     Harris-Foulkes estimate   =    -933.05993669 Ry
     estimated scf accuracy    <       0.00000026 Ry

     iteration # 11     ecut=    30.00 Ry     beta= 0.70
     Davidson diagonalization with overlap
     ethr =  9.78E-11,  avg # of iterations =  2.5

     total cpu time spent up to now is      152.6 secs

     total energy              =    -933.05993664 Ry
     Harris-Foulkes estimate   =    -933.05993665 Ry
     estimated scf accuracy    <       0.00000001 Ry

     iteration # 12     ecut=    30.00 Ry     beta= 0.70
     Davidson diagonalization with overlap
     ethr =  4.78E-12,  avg # of iterations =  4.0

     total cpu time spent up to now is      165.4 secs

     total energy              =    -933.05993665 Ry
     Harris-Foulkes estimate   =    -933.05993665 Ry
     estimated scf accuracy    <          2.3E-09 Ry

     iteration # 13     ecut=    30.00 Ry     beta= 0.70
     Davidson diagonalization with overlap
     ethr =  8.47E-13,  avg # of iterations =  2.0

     total cpu time spent up to now is      176.1 secs

     End of self-consistent calculation

          k = 0.0000 0.0000 0.0000 ( 23871 PWs)   bands (ev):

   -17.9788 -17.9788 -17.9788 -17.9496 -17.9496  -5.7327  -4.7812  -4.6246
    -4.6246  -4.6246  -4.6224  -4.6224  -3.8976  -3.6656  -3.6656  -3.6656
    -3.6610  -3.6610  -3.6610  -3.6610  -3.6610  -3.6610  -3.6607  -3.6607
    -3.4146  -3.3739  -3.3739  -3.3739  -1.7251  -1.5636  -1.5636  -1.5636
    -1.5608  -1.5608  -1.4816  -1.4003  -1.4003  -1.4003  -1.3977  -1.3977
    -1.3977  -1.3967  -1.3967  -1.3967  -1.3965  -1.3965  -0.7345  -0.7181
    -0.7181  -0.7181   0.6638   0.7721   0.7721   0.7721   0.7749   0.7749
     0.7749   0.7760   0.7760   0.7782   0.7782   0.7782   2.3961   2.3961
     2.3961   2.4034   2.4034   2.4034   2.4041   2.4041   2.4041   2.4044
     2.4064   2.4064   2.4909   2.4971   2.4971   2.4971   2.5039   2.5039
     2.5039   2.5056   2.5056   2.5067   2.5067   2.5067   2.6860   2.7393
     2.7393   2.7434   2.7434   2.7434   3.4015   3.4015   3.4015   3.4034
     3.4034   3.4034   4.3646   4.3646   4.3646   4.3647   4.3647   4.3647
     4.3670   4.3670   4.3670   4.3764   4.3764   4.3764   4.9265   4.9265
     4.9265   4.9291   4.9291   4.9291   4.9291   4.9321   4.9321   4.9385
     4.9385   4.9385   5.0556   5.0556   5.0556   5.0590   5.0590   5.0671
     5.0671   5.0671   6.2663   6.2663   6.2663   6.9476   6.9803   6.9803
     6.9803   6.9810   6.9810   7.3687   7.3930   7.3930   7.4011   7.4011
     7.4011   7.7474   7.8033   7.8033   7.8033   8.6603   8.7053   8.7053
     8.7053   8.7083   8.7083   8.7083   8.7307   8.7307   8.7307   8.7312

          k = 0.0000 0.0000-0.0244 ( 23980 PWs)   bands (ev):

   -17.9801 -17.9798 -17.9798 -17.9504 -17.9501  -5.4883  -5.4318  -4.5686
    -4.3788  -4.3788  -4.3770  -4.3758  -4.3751  -4.3751  -4.3742  -3.6868
    -3.5345  -3.5345  -3.5321  -3.5312  -3.5311  -3.5311  -3.5309  -3.3316
    -3.3135  -2.7047  -2.5932  -2.5887  -2.5887  -2.5881  -2.5881  -2.5878
    -2.5873  -1.5898  -1.4877  -1.4877  -1.4833  -1.4828  -1.4824  -1.4824
    -1.4824  -0.4208  -0.3164  -0.3164  -0.3135  -0.3135  -0.3131  -0.3129
    -0.3128  -0.1583  -0.1296  -0.1276  -0.1276  -0.1216  -0.1212  -0.1206
    -0.1206   0.4915   0.5104   1.8969   1.9646   1.9646   1.9658   1.9663
     1.9689   1.9709   1.9709   2.0237   2.0237   2.0246   2.0284   2.0290
     2.0290   2.0293   2.0309   2.8350   2.8350   2.8364   2.8379   2.8390
     2.8407   2.8407   2.8424   3.5371   3.5395   3.5422   3.5422   3.5423
     3.5453   3.5491   3.5491   3.6464   3.6464   3.6510   3.6510   3.6710
     3.6713   3.6714   3.6714   3.6731   3.6747   3.6747   3.6756   3.7798
     3.7927   3.7927   3.7949   3.7964   3.7978   3.7978   3.8010   4.8247
     4.8277   4.8277   4.8288   4.8319   4.8319   4.8325   4.8435   4.9118
     4.9351   4.9873   4.9914   4.9914   4.9916   4.9916   4.9942   5.0008
     5.0008   5.4503   5.4503   5.4610   5.4610   6.8719   6.8859   7.8041
     7.8086   8.2123   8.2288   8.2309   8.2309   8.2343   8.2498   8.2520
     8.2520   8.2691   8.2816   8.5664   8.6162   8.6162   8.6188   8.6214
     8.6219   8.6219   8.6609   8.7040   8.7082   8.7087   8.7087   8.7125

          k = 0.0000-0.0244-0.0244 ( 23980 PWs)   bands (ev):

   -17.9797 -17.9793 -17.9793 -17.9509 -17.9508  -5.2736  -5.1650  -5.1650
    -5.1637  -4.3258  -4.1543  -4.1492  -4.1492  -4.1480  -4.1480  -4.1479
    -4.1477  -3.2865  -3.1175  -3.1175  -3.1118  -3.1118  -3.1117  -3.1115
    -3.1115  -2.9194  -2.8374  -2.8374  -2.8353  -2.8351  -2.8348  -2.8344
    -2.8344  -2.0284  -1.9766  -1.9752  -1.9752  -1.0262  -0.9757  -0.9709
    -0.9709  -0.5967  -0.5374  -0.5374  -0.5355  -0.5310  -0.5305  -0.5301
    -0.5301   0.2039   0.2903   0.2914   0.2914   0.2915   0.2915   0.2918
     0.2918   0.9211   0.9664   0.9664   0.9678   0.9709   0.9723   0.9723
     0.9753   1.9513   1.9513   1.9520   1.9560   2.7875   2.8032   2.8039
     2.8039   2.8052   2.8088   2.8092   2.8092   2.8896   2.8896   2.8922
     2.8927   2.8950   2.8950   2.8951   2.8951   3.4935   3.4948   3.4962
     3.4962   3.4988   3.4989   3.4989   3.4994   3.5477   3.5712   3.5784
     3.5784   3.8300   3.8300   3.8308   3.8324   4.0943   4.0943   4.0976
     4.0981   4.0987   4.0987   4.1017   4.1039   4.4053   4.4224   4.4226
     4.4226   4.4244   4.4253   4.4253   4.4341   4.6269   4.6281   4.6281
     4.6412   4.6679   4.6682   4.6682   4.6700   4.6701   4.6715   4.6803
     4.6803   5.9644   5.9654   5.9774   5.9774   7.4631   7.4631   7.4649
     7.4847   8.1857   8.2042   8.2070   8.2070   8.2129   8.2210   8.2294
     8.2294   8.4870   8.5038   8.5051   8.5051   8.5061   8.5106   8.5106
     8.5487   8.8991   8.9057   8.9077   8.9077   8.9085   8.9256   8.9256

          k =-0.0244-0.0244-0.0244 ( 23984 PWs)   bands (ev):

   -17.9794 -17.9794 -17.9794 -17.9509 -17.9509  -5.0995  -4.9070  -4.9070
    -4.9070  -4.9047  -4.9042  -4.9042  -4.9042  -3.3854  -2.9959  -2.9959
    -2.9959  -2.9877  -2.9877  -2.9876  -2.9876  -2.9876  -2.9871  -2.9871
    -2.9871  -2.9870  -2.9870  -2.9870  -2.9869  -2.9862  -2.9862  -2.9862
    -2.9862  -2.9862  -2.9859  -2.9859  -2.9859  -0.3640  -0.1387  -0.1387
    -0.1387  -0.1278  -0.1278  -0.1278  -0.1270  -0.1270  -0.1270  -0.1270
    -0.1270  -0.1270  -0.1269  -0.1269  -0.1269  -0.1262  -0.1262  -0.1257
    -0.1257  -0.1257  -0.1250  -0.1250  -0.1250   2.2799   2.3262   2.3262
     2.3262   2.3284   2.3337   2.3337   2.3337   2.6894   2.7117   2.7117
     2.7117   2.7212   2.7212   2.7212   2.7220   2.7220   2.7220   2.7223
     2.7223   2.7223   2.7224   2.7224   2.7224   2.7224   2.7224   2.7228
     2.7269   2.7269   2.7276   2.7276   2.7276   4.0440   4.0440   4.0440
     4.0491   4.0491   4.0491   4.0504   4.0504   4.0504   4.0512   4.0515
     4.0515   4.0515   4.0521   4.0521   4.0522   4.0522   4.0522   4.0522
     4.0538   4.0538   4.0607   4.0607   4.0607   5.4954   5.4954   5.4954
     5.4969   5.4969   5.4971   5.4971   5.4971   5.4976   5.4976   5.4976
     5.4987   5.4987   5.5232   5.5232   5.5232   7.6931   7.7754   7.7754
     7.7754   7.7775   7.7789   7.7789   7.7789   7.7793   7.7793   7.7795
     7.7795   7.7795   7.7800   7.7800   7.7800   7.7809   7.7809   7.7809
     7.8231   7.8231   7.8231   7.8283   7.8283   8.2183   8.2859   8.2859

     the Fermi energy is     6.4474 ev

!    total energy              =    -933.05993665 Ry
     Harris-Foulkes estimate   =    -933.05993665 Ry
     estimated scf accuracy    <          4.3E-10 Ry

     The total energy is the sum of the following terms:

     one-electron contribution =     -44.53835767 Ry
     hartree contribution      =     150.89702386 Ry
     xc contribution           =    -446.10616901 Ry
     ewald contribution        =    -593.31243383 Ry
     smearing contrib. (-TS)   =      -0.00000000 Ry

     convergence has been achieved in  13 iterations

     Forces acting on atoms (cartesian axes, Ry/au):

     atom    1 type  2   force =     0.00000000   -0.00000000    0.00000000
     atom    2 type  1   force =     0.00000000    0.00000000    0.00000000
     atom    3 type  1   force =     0.00000000    0.00000000    0.00000000
     atom    4 type  1   force =     0.00000000    0.00000000    0.00000000
     atom    5 type  1   force =     0.00000000    0.00000000    0.00000000
     atom    6 type  1   force =     0.00000000    0.00000000    0.00000000
     atom    7 type  1   force =     0.00000000    0.00000000    0.00000000
     atom    8 type  1   force =     0.00000000   -0.00000000    0.00000000
     atom    9 type  1   force =     0.00046938   -0.00002646   -0.00002646
     atom   10 type  1   force =    -0.00046938   -0.00002646    0.00002646
     atom   11 type  1   force =    -0.00046938    0.00002646   -0.00002646
     atom   12 type  1   force =     0.00046938    0.00002646    0.00002646
     atom   13 type  1   force =    -0.00003631    0.00003022    0.00003022
     atom   14 type  1   force =     0.00003631    0.00003022   -0.00003022
     atom   15 type  1   force =     0.00003631   -0.00003022    0.00003022
     atom   16 type  1   force =    -0.00003631   -0.00003022   -0.00003022
     atom   17 type  1   force =    -0.00002646    0.00046938   -0.00002646
     atom   18 type  1   force =    -0.00002646   -0.00046938    0.00002646
     atom   19 type  1   force =     0.00003022   -0.00003631    0.00003022
     atom   20 type  1   force =     0.00003022    0.00003631   -0.00003022
     atom   21 type  1   force =     0.00002646   -0.00046938   -0.00002646
     atom   22 type  1   force =     0.00002646    0.00046938    0.00002646
     atom   23 type  1   force =    -0.00003022    0.00003631    0.00003022
     atom   24 type  1   force =    -0.00003022   -0.00003631   -0.00003022
     atom   25 type  1   force =    -0.00002646   -0.00002646    0.00046938
     atom   26 type  1   force =     0.00003022    0.00003022   -0.00003631
     atom   27 type  1   force =    -0.00002646    0.00002646   -0.00046938
     atom   28 type  1   force =     0.00003022   -0.00003022    0.00003631
     atom   29 type  1   force =     0.00002646   -0.00002646   -0.00046938
     atom   30 type  1   force =    -0.00003022    0.00003022    0.00003631
     atom   31 type  1   force =     0.00002646    0.00002646    0.00046938
     atom   32 type  1   force =    -0.00003022   -0.00003022   -0.00003631
     atom   33 type  1   force =     0.00003331    0.00003331   -0.00006763
     atom   34 type  1   force =    -0.00002024   -0.00002024    0.00002024
     atom   35 type  1   force =     0.00000152    0.00001000   -0.00001000
     atom   36 type  1   force =     0.00003331    0.00006763   -0.00003331
     atom   37 type  1   force =     0.00001000    0.00000152   -0.00001000
     atom   38 type  1   force =     0.00006763    0.00003331   -0.00003331
     atom   39 type  1   force =    -0.01100845   -0.01100845    0.01100845
     atom   40 type  1   force =     0.00001000    0.00001000   -0.00000152
     atom   41 type  1   force =     0.00003331   -0.00006763    0.00003331
     atom   42 type  1   force =     0.00000152   -0.00001000    0.00001000
     atom   43 type  1   force =    -0.00002024    0.00002024   -0.00002024
     atom   44 type  1   force =     0.00003331   -0.00003331    0.00006763
     atom   45 type  1   force =     0.00001000   -0.00001000    0.00000152
     atom   46 type  1   force =    -0.01100845    0.01100845   -0.01100845
     atom   47 type  1   force =     0.00006763   -0.00003331    0.00003331
     atom   48 type  1   force =     0.00001000   -0.00000152    0.00001000
     atom   49 type  1   force =    -0.00006763    0.00003331    0.00003331
     atom   50 type  1   force =    -0.00001000    0.00000152    0.00001000
     atom   51 type  1   force =    -0.00001000    0.00001000    0.00000152
     atom   52 type  1   force =     0.01100845   -0.01100845   -0.01100845
     atom   53 type  1   force =     0.00002024   -0.00002024   -0.00002024
     atom   54 type  1   force =    -0.00003331    0.00003331    0.00006763
     atom   55 type  1   force =    -0.00003331    0.00006763    0.00003331
     atom   56 type  1   force =    -0.00000152    0.00001000    0.00001000
     atom   57 type  1   force =     0.01100845    0.01100845    0.01100845
     atom   58 type  1   force =    -0.00001000   -0.00001000   -0.00000152
     atom   59 type  1   force =    -0.00001000   -0.00000152   -0.00001000
     atom   60 type  1   force =    -0.00006763   -0.00003331   -0.00003331
     atom   61 type  1   force =    -0.00000152   -0.00001000   -0.00001000
     atom   62 type  1   force =    -0.00003331   -0.00006763   -0.00003331
     atom   63 type  1   force =    -0.00003331   -0.00003331   -0.00006763
     atom   64 type  1   force =     0.00002024    0.00002024    0.00002024

     Total force =     0.038171     Total SCF correction =     0.000041


     Computing stress (Cartesian axis) and pressure

          total   stress  (Ry/bohr**3)                   (kbar)     P=   19.15
   0.00013020   0.00000000   0.00000000         19.15      0.00      0.00
   0.00000000   0.00013020   0.00000000          0.00     19.15      0.00
   0.00000000   0.00000000   0.00013020          0.00      0.00     19.15


     Writing output data file scf_.save/
 
     init_run     :     87.77s CPU     10.75s WALL (       1 calls)
     electrons    :   1739.53s CPU    164.89s WALL (       1 calls)
     forces       :     62.70s CPU      6.87s WALL (       1 calls)
     stress       :    236.99s CPU     22.49s WALL (       1 calls)

     Called by init_run:
     wfcinit      :     41.05s CPU      3.52s WALL (       1 calls)
     potinit      :     18.23s CPU      2.18s WALL (       1 calls)
     hinit0       :      6.96s CPU      1.52s WALL (       1 calls)

     Called by electrons:
     c_bands      :    922.76s CPU     79.93s WALL (      14 calls)
     sum_band     :    319.70s CPU     30.78s WALL (      14 calls)
     v_of_rho     :    215.59s CPU     25.34s WALL (      14 calls)
     newd         :    276.14s CPU     24.37s WALL (      14 calls)
     mix_rho      :     31.04s CPU      4.72s WALL (      14 calls)

     Called by c_bands:
     init_us_2    :      6.34s CPU      0.55s WALL (      29 calls)
     cegterg      :    873.04s CPU     73.00s WALL (      14 calls)

     Called by sum_band:
     sum_band:bec :      0.06s CPU      0.01s WALL (      14 calls)
     addusdens    :    132.27s CPU     12.56s WALL (      14 calls)

     Called by *egterg:
     h_psi        :    801.33s CPU     66.87s WALL (      64 calls)
     s_psi        :     44.26s CPU      3.65s WALL (      64 calls)
     g_psi        :      0.72s CPU      0.06s WALL (      49 calls)
     cdiaghg      :     22.54s CPU      1.94s WALL (      62 calls)

     Called by h_psi:
     h_psi:pot    :    800.77s CPU     66.75s WALL (      64 calls)
     h_psi:calbec :     38.19s CPU      3.17s WALL (      64 calls)
     vloc_psi     :    719.01s CPU     59.92s WALL (      64 calls)
     add_vuspsi   :     43.57s CPU      3.65s WALL (      64 calls)

     General routines
     calbec       :     56.73s CPU      4.71s WALL (      83 calls)
     fft          :    208.92s CPU     29.15s WALL (     206 calls)
     ffts         :      2.45s CPU      0.21s WALL (      28 calls)
     fftw         :    847.01s CPU     70.63s WALL (   14218 calls)
     interpolate  :      4.16s CPU      2.28s WALL (      14 calls)
 
     Parallel routines
 
     PWSCF        :  35m30.18s CPU   3m27.24s WALL

 
   This run was terminated on:  14:41:30   8Apr2020            

=------------------------------------------------------------------------------=
   JOB DONE.
=------------------------------------------------------------------------------=
