
     Program PWSCF v.6.4.1 starts on  8Apr2020 at 14:20:40 

     This program is part of the open-source Quantum ESPRESSO suite
     for quantum simulation of materials; please cite
         "P. Giannozzi et al., J. Phys.:Condens. Matter 21 395502 (2009);
         "P. Giannozzi et al., J. Phys.:Condens. Matter 29 465901 (2017);
          URL http://www.quantum-espresso.org", 
     in publications or presentations arising from this work. More details at
     http://www.quantum-espresso.org/quote

     Parallel version (MPI & OpenMP), running on      12 processor cores
     Number of MPI processes:                 1
     Threads/MPI process:                    12

     MPI processes distributed on     1 nodes
     Reading input from pw.in
Warning: card &IONS ignored
Warning: card  ION_DYNAMICS='BFGS', ignored
Warning: card / ignored
Warning: card &CELL ignored
Warning: card  CELL_DYNAMICS='BFGS', ignored
Warning: card / ignored
     Message from routine read_cards :
     DEPRECATED: no units specified in CELL_PARAMETERS card

     Current dimensions of program PWSCF are:
     Max number of different atomic species (ntypx) = 10
     Max number of k-points (npk) =  40000
     Max angular momentum in pseudopotentials (lmaxx) =  3

     Subspace diagonalization in iterative solution of the eigenvalue problem:
     a serial algorithm will be used

     Message from routine setup:
     DEPRECATED: symmetry with ibrav=0, use correct ibrav instead
 
     G-vector sticks info
     --------------------
     sticks:   dense  smooth     PW     G-vecs:    dense   smooth      PW
     Sum        4495     999    295               321133    33601    5349
 


     bravais-lattice index     =            0
     lattice parameter (alat)  =       5.6050  a.u.
     unit-cell volume          =     704.3536 (a.u.)^3
     number of atoms/cell      =            2
     number of atomic types    =            2
     number of electrons       =        10.00
     number of Kohn-Sham states=            9
     kinetic-energy cutoff     =      50.0000  Ry
     charge density cutoff     =     900.0000  Ry
     convergence threshold     =      1.0E-10
     mixing beta               =       0.7000
     number of iterations used =            8  plain     mixing
     Exchange-correlation      =  SLA  PZ   NOGX NOGC ( 1  1  0  0 0 0)

     Effective Screening Medium Method
     =================================
     Boundary Conditions: Vacuum-Slab-Vacuum
     grid points for fit at edges     =        4 
 

     celldm(1)=   5.605017  celldm(2)=   0.000000  celldm(3)=   0.000000
     celldm(4)=   0.000000  celldm(5)=   0.000000  celldm(6)=   0.000000

     crystal axes: (cart. coord. in units of alat)
               a(1) = (   2.000000   0.000000   0.000000 )  
               a(2) = (   0.000000   1.000000   0.000000 )  
               a(3) = (   0.000000   0.000000   2.000000 )  

     reciprocal axes: (cart. coord. in units 2 pi/alat)
               b(1) = (  0.500000  0.000000  0.000000 )  
               b(2) = (  0.000000  1.000000  0.000000 )  
               b(3) = (  0.000000  0.000000  0.500000 )  


     PseudoPot. # 1 for Li read from file:
     ./li_lda_v1.4.uspp.F.UPF
     MD5 check sum: 099978caaee46ddf82aee43f5434341b
     Pseudo is Ultrasoft, Zval =  3.0
     Generated by new atomic code, or converted to UPF format
     Using radial grid of  751 points,  5 beta functions with: 
                l(1) =   0
                l(2) =   0
                l(3) =   0
                l(4) =   1
                l(5) =   1
     Q(r) pseudized with 10 coefficients,  rinner =    1.150   1.150   1.150


     PseudoPot. # 2 for F  read from file:
     ./f_lda_v1.4.uspp.F.UPF
     MD5 check sum: b55d989075ece9c6a2e5eaa43b4e1062
     Pseudo is Ultrasoft, Zval =  7.0
     Generated by new atomic code, or converted to UPF format
     Using radial grid of  799 points,  4 beta functions with: 
                l(1) =   0
                l(2) =   0
                l(3) =   1
                l(4) =   1
     Q(r) pseudized with  8 coefficients,  rinner =    0.950   0.950   0.950


     atomic species   valence    mass     pseudopotential
        Li             3.00     6.94100     Li( 1.00)
        F              7.00    18.99840     F ( 1.00)

      4 Sym. Ops. (no inversion) found


                                    s                        frac. trans.

      isym =  1     identity                                     

 cryst.   s( 1) = (     1          0          0      )
                  (     0          1          0      )
                  (     0          0          1      )

 cart.    s( 1) = (  1.0000000  0.0000000  0.0000000 )
                  (  0.0000000  1.0000000  0.0000000 )
                  (  0.0000000  0.0000000  1.0000000 )


      isym =  2     180 deg rotation - cart. axis [1,0,0]        

 cryst.   s( 2) = (     1          0          0      )
                  (     0         -1          0      )
                  (     0          0         -1      )

 cart.    s( 2) = (  1.0000000  0.0000000  0.0000000 )
                  (  0.0000000 -1.0000000  0.0000000 )
                  (  0.0000000  0.0000000 -1.0000000 )


      isym =  3     inv. 180 deg rotation - cart. axis [0,0,1]   

 cryst.   s( 3) = (     1          0          0      )
                  (     0          1          0      )
                  (     0          0         -1      )

 cart.    s( 3) = (  1.0000000  0.0000000  0.0000000 )
                  (  0.0000000  1.0000000  0.0000000 )
                  (  0.0000000  0.0000000 -1.0000000 )


      isym =  4     inv. 180 deg rotation - cart. axis [0,1,0]   

 cryst.   s( 4) = (     1          0          0      )
                  (     0         -1          0      )
                  (     0          0          1      )

 cart.    s( 4) = (  1.0000000  0.0000000  0.0000000 )
                  (  0.0000000 -1.0000000  0.0000000 )
                  (  0.0000000  0.0000000  1.0000000 )


   Cartesian axes

     site n.     atom                  positions (alat units)
         1           Li  tau(   1) = (   0.0000000   0.0000000   0.0000000  )
         2           F   tau(   2) = (   0.6742981   0.0000000   0.0000000  )

   Crystallographic axes

     site n.     atom                  positions (cryst. coord.)
         1           Li  tau(   1) = (  0.0000000  0.0000000  0.0000000  )
         2           F   tau(   2) = (  0.3371491  0.0000000  0.0000000  )

     number of k points=     3  gaussian smearing, width (Ry)=  0.0200
                       cart. coord. in units 2pi/alat
        k(    1) = (   0.0000000   0.0000000   0.0000000), wk =   0.5000000
        k(    2) = (   0.0000000   0.2500000   0.0000000), wk =   1.0000000
        k(    3) = (   0.0000000  -0.5000000   0.0000000), wk =   0.5000000

                       cryst. coord.
        k(    1) = (   0.0000000   0.0000000   0.0000000), wk =   0.5000000
        k(    2) = (   0.0000000   0.2500000   0.0000000), wk =   1.0000000
        k(    3) = (   0.0000000  -0.5000000   0.0000000), wk =   0.5000000

     Dense  grid:   321133 G-vectors     FFT dimensions: ( 108,  54, 108)

     Smooth grid:    33601 G-vectors     FFT dimensions: (  54,  25,  54)

     Dynamical RAM for                 wfc:       0.58 MB

     Dynamical RAM for     wfc (w. buffer):       2.31 MB

     Dynamical RAM for           str. fact:       9.80 MB

     Dynamical RAM for           local pot:       0.00 MB

     Dynamical RAM for          nlocal pot:       1.09 MB

     Dynamical RAM for                qrad:       1.84 MB

     Dynamical RAM for          rho,v,vnew:      29.12 MB

     Dynamical RAM for               rhoin:       9.71 MB

     Dynamical RAM for            rho*nmix:      78.40 MB

     Dynamical RAM for           G-vectors:      18.63 MB

     Dynamical RAM for          h,s,v(r/c):       0.06 MB

     Dynamical RAM for          <psi|beta>:       0.00 MB

     Dynamical RAM for                 psi:       2.31 MB

     Dynamical RAM for                hpsi:       2.31 MB

     Dynamical RAM for                spsi:       2.31 MB

     Dynamical RAM for      wfcinit/wfcrot:       1.16 MB

     Dynamical RAM for           addusdens:     259.71 MB

     Dynamical RAM for          addusforce:     276.86 MB

     Dynamical RAM for         addusstress:     289.11 MB

     Estimated static dynamical RAM per process >     189.62 MB

     Estimated max dynamical RAM per process >     478.73 MB

     Initial potential from superposition of free atoms

     starting charge    9.54925, renormalised to   10.00000
     Starting wfcs are    9 randomized atomic wfcs

     total cpu time spent up to now is        1.1 secs

     Self-consistent Calculation

     iteration #  1     ecut=    50.00 Ry     beta= 0.70
     Davidson diagonalization with overlap
     ethr =  1.00E-02,  avg # of iterations =  5.7

     Threshold (ethr) on eigenvalues was too large:
     Diagonalizing with lowered threshold

     Davidson diagonalization with overlap
     ethr =  8.50E-04,  avg # of iterations =  7.3

     total cpu time spent up to now is        2.5 secs

     total energy              =     -62.84271644 Ry
     Harris-Foulkes estimate   =     -62.89152868 Ry
     estimated scf accuracy    <       0.08783293 Ry

     iteration #  2     ecut=    50.00 Ry     beta= 0.70
     Davidson diagonalization with overlap
     ethr =  8.78E-04,  avg # of iterations =  1.7

     total cpu time spent up to now is        3.2 secs

     total energy              =     -62.84733760 Ry
     Harris-Foulkes estimate   =     -62.84907397 Ry
     estimated scf accuracy    <       0.00432522 Ry

     iteration #  3     ecut=    50.00 Ry     beta= 0.70
     Davidson diagonalization with overlap
     ethr =  4.33E-05,  avg # of iterations =  5.3

     total cpu time spent up to now is        4.2 secs

     total energy              =     -62.84868407 Ry
     Harris-Foulkes estimate   =     -62.85005947 Ry
     estimated scf accuracy    <       0.00305632 Ry

     iteration #  4     ecut=    50.00 Ry     beta= 0.70
     Davidson diagonalization with overlap
     ethr =  3.06E-05,  avg # of iterations =  2.7

     total cpu time spent up to now is        4.9 secs

     total energy              =     -62.84940760 Ry
     Harris-Foulkes estimate   =     -62.84951549 Ry
     estimated scf accuracy    <       0.00030303 Ry

     iteration #  5     ecut=    50.00 Ry     beta= 0.70
     Davidson diagonalization with overlap
     c_bands:  1 eigenvalues not converged
     ethr =  3.03E-06,  avg # of iterations = 10.3

     total cpu time spent up to now is        5.8 secs

     total energy              =     -62.84947870 Ry
     Harris-Foulkes estimate   =     -62.84948180 Ry
     estimated scf accuracy    <       0.00000446 Ry

     iteration #  6     ecut=    50.00 Ry     beta= 0.70
     Davidson diagonalization with overlap
     c_bands:  1 eigenvalues not converged
     ethr =  4.46E-08,  avg # of iterations = 12.3

     total cpu time spent up to now is        6.8 secs

     total energy              =     -62.84948050 Ry
     Harris-Foulkes estimate   =     -62.84948119 Ry
     estimated scf accuracy    <       0.00000008 Ry

     iteration #  7     ecut=    50.00 Ry     beta= 0.70
     Davidson diagonalization with overlap
     ethr =  7.78E-10,  avg # of iterations = 13.7

     total cpu time spent up to now is        7.9 secs

     total energy              =     -62.84948049 Ry
     Harris-Foulkes estimate   =     -62.84948056 Ry
     estimated scf accuracy    <          2.9E-09 Ry

     iteration #  8     ecut=    50.00 Ry     beta= 0.70
     Davidson diagonalization with overlap
     ethr =  2.90E-11,  avg # of iterations = 10.3

     total cpu time spent up to now is        8.8 secs

     total energy              =     -62.84948047 Ry
     Harris-Foulkes estimate   =     -62.84948049 Ry
     estimated scf accuracy    <          1.9E-10 Ry

     iteration #  9     ecut=    50.00 Ry     beta= 0.70
     Davidson diagonalization with overlap
     ethr =  1.87E-12,  avg # of iterations =  9.3

     total cpu time spent up to now is        9.7 secs

     End of self-consistent calculation

          k = 0.0000 0.0000 0.0000 (  4165 PWs)   bands (ev):

   -51.4664 -23.6612  -6.3255  -5.6851  -4.7098  -3.3729  -0.0933   0.9051
     2.0112

     occupation numbers 
     1.0000   1.0000   1.0000   1.0000   0.9997   0.0003   0.0000   0.0000
     0.0000

          k = 0.0000 0.2500 0.0000 (  4205 PWs)   bands (ev):

   -51.4624 -23.5852  -6.1475  -5.5234  -5.4724  -2.5033   0.8526   1.8248
     2.1797

     occupation numbers 
     1.0000   1.0000   1.0000   1.0000   1.0000   0.0000   0.0000   0.0000
     0.0000

          k = 0.0000-0.5000 0.0000 (  4220 PWs)   bands (ev):

   -51.4583 -23.5074  -6.1055  -5.9428  -5.3578  -1.1442   1.1412   3.0428
     4.2806

     occupation numbers 
     1.0000   1.0000   1.0000   1.0000   1.0000   0.0000   0.0000   0.0000
     0.0000

     the Fermi energy is    -4.0413 ev

!    total energy              =     -62.84948047 Ry
     Harris-Foulkes estimate   =     -62.84948047 Ry
     estimated scf accuracy    <          1.8E-11 Ry

     The total energy is the sum of the following terms:

     one-electron contribution =     -35.40132307 Ry
     hartree contribution      =      18.96912397 Ry
     xc contribution           =     -12.25518532 Ry
     ewald contribution        =     -34.16208253 Ry
     smearing contrib. (-TS)   =      -0.00001351 Ry

     convergence has been achieved in   9 iterations

     Forces acting on atoms (cartesian axes, Ry/au):

     atom    1 type  1   force =     0.08823062    0.00000000    0.00000000
     atom    2 type  2   force =    -0.08823062    0.00000000    0.00000000
     The non-local contrib.  to forces
     atom    1 type  1   force =    -0.26479839    0.00000000    0.00000000
     atom    2 type  2   force =    -0.62451462    0.00000000    0.00000000
     The ionic contribution  to forces
     atom    1 type  1   force =    -2.68119364   -0.00000000    0.00000000
     atom    2 type  2   force =     2.68119364    0.00000000    0.00000000
     The local contribution  to forces
     atom    1 type  1   force =     3.03422189    0.00000000    0.00005023
     atom    2 type  2   force =    -2.14490973    0.00000000    0.00011620
     The core correction contribution to forces
     atom    1 type  1   force =     0.00000000    0.00000000    0.00000000
     atom    2 type  2   force =     0.00000000    0.00000000    0.00000000
     The Hubbard contrib.    to forces
     atom    1 type  1   force =     0.00000000    0.00000000    0.00000000
     atom    2 type  2   force =     0.00000000    0.00000000    0.00000000
     The SCF correction term to forces
     atom    1 type  1   force =    -0.00000031    0.00000000    0.00000000
     atom    2 type  2   force =    -0.00000098   -0.00000000    0.00000000

     Total force =     0.124777     Total SCF correction =     0.000001


     Computing stress (Cartesian axis) and pressure

          total   stress  (Ry/bohr**3)                   (kbar)     P=  -26.70
  -0.00077647   0.00000000   0.00000000       -114.22      0.00      0.00
   0.00000000   0.00023196   0.00000000          0.00     34.12      0.00
   0.00000000   0.00000000   0.00000000          0.00      0.00      0.00

     kinetic stress (kbar)   2813.64      0.00      0.00
                                0.00   2923.41      0.00
                                0.00      0.00   2913.49

     local   stress (kbar)   3016.14     -0.00     -0.00
                               -0.00    398.29      0.00
                               -0.00      0.00  -2962.51

     nonloc. stress (kbar)     17.14      0.00      0.00
                                0.00     30.12      0.00
                                0.00      0.00     28.63

     hartree stress (kbar)  -1103.27     -0.00      0.00
                               -0.00    558.00      0.00
                                0.00      0.00      0.00

     exc-cor stress (kbar)   -799.39      0.00      0.00
                                0.00   -799.39      0.00
                                0.00      0.00   -799.39

     corecor stress (kbar)      0.00      0.00      0.00
                                0.00      0.00      0.00
                                0.00      0.00      0.00

     ewald   stress (kbar)  -4058.48      0.00      0.00
                                0.00  -3076.31      0.00
                                0.00      0.00      0.00

     hubbard stress (kbar)      0.00      0.00      0.00
                                0.00      0.00      0.00
                                0.00      0.00      0.00

     london  stress (kbar)      0.00      0.00      0.00
                                0.00      0.00      0.00
                                0.00      0.00      0.00

     DFT-D3  stress (kbar)      0.00      0.00      0.00
                                0.00      0.00      0.00
                                0.00      0.00      0.00

     XDM     stress (kbar)      0.00      0.00      0.00
                                0.00      0.00      0.00
                                0.00      0.00      0.00

     dft-nl  stress (kbar)      0.00      0.00      0.00
                                0.00      0.00      0.00
                                0.00      0.00      0.00

     TS-vdW  stress (kbar)      0.00      0.00      0.00
                                0.00      0.00      0.00
                                0.00      0.00      0.00



     Writing output data file LiF_.save/
 
     init_run     :      9.51s CPU      0.92s WALL (       1 calls)
     electrons    :    101.75s CPU      8.70s WALL (       1 calls)
     forces       :      5.14s CPU      0.44s WALL (       1 calls)
     stress       :     12.79s CPU      1.10s WALL (       1 calls)

     Called by init_run:
     wfcinit      :      0.92s CPU      0.08s WALL (       1 calls)
     wfcinit:atom :      0.05s CPU      0.00s WALL (       3 calls)
     wfcinit:wfcr :      0.84s CPU      0.07s WALL (       3 calls)
     potinit      :      1.82s CPU      0.16s WALL (       1 calls)
     hinit0       :      4.20s CPU      0.36s WALL (       1 calls)

     Called by electrons:
     c_bands      :     30.36s CPU      2.53s WALL (      10 calls)
     sum_band     :     35.11s CPU      3.03s WALL (      10 calls)
     v_of_rho     :      7.69s CPU      0.65s WALL (      10 calls)
     v_h          :      7.27s CPU      0.62s WALL (      10 calls)
     v_xc         :      0.42s CPU      0.03s WALL (      10 calls)
     newd         :     24.89s CPU      2.19s WALL (      10 calls)
     mix_rho      :      3.45s CPU      0.29s WALL (      10 calls)

     Called by c_bands:
     init_us_2    :      0.12s CPU      0.01s WALL (      69 calls)
     cegterg      :     29.90s CPU      2.50s WALL (      30 calls)

     Called by sum_band:
     sum_band:bec :      0.00s CPU      0.00s WALL (      30 calls)
     addusdens    :     25.91s CPU      2.26s WALL (      10 calls)

     Called by *egterg:
     h_psi        :     29.54s CPU      2.45s WALL (     269 calls)
     s_psi        :      0.00s CPU      0.00s WALL (     269 calls)
     g_psi        :      0.09s CPU      0.00s WALL (     236 calls)
     cdiaghg      :      0.60s CPU      0.06s WALL (     263 calls)
     cegterg:over :      0.24s CPU      0.02s WALL (     236 calls)
     cegterg:upda :      0.10s CPU      0.01s WALL (     236 calls)
     cegterg:last :      0.00s CPU      0.00s WALL (      48 calls)

     Called by h_psi:
     h_psi:pot    :     29.50s CPU      2.45s WALL (     269 calls)
     h_psi:calbec :      0.24s CPU      0.01s WALL (     269 calls)
     vloc_psi     :     29.16s CPU      2.42s WALL (     269 calls)
     add_vuspsi   :      0.10s CPU      0.01s WALL (     269 calls)

     General routines
     calbec       :      0.33s CPU      0.02s WALL (     314 calls)
     fft          :     10.28s CPU      0.86s WALL (      63 calls)
     ffts         :      0.16s CPU      0.03s WALL (      20 calls)
     fftw         :     32.33s CPU      2.69s WALL (    2610 calls)
     interpolate  :      2.63s CPU      0.23s WALL (      10 calls)
 
     Parallel routines
 
     PWSCF        :   2m11.63s CPU     11.55s WALL

 
   This run was terminated on:  14:20:51   8Apr2020            

=------------------------------------------------------------------------------=
   JOB DONE.
=------------------------------------------------------------------------------=
