SIRIUS 7.2.0, git hash: b7bf4a5fc66ba778625467ac49c53619c71a811e

     Program PWSCF v.6.7GPU starts on 17Feb2021 at 11:21:56 

     This program is part of the open-source Quantum ESPRESSO suite
     for quantum simulation of materials; please cite
         "P. Giannozzi et al., J. Phys.:Condens. Matter 21 395502 (2009);
         "P. Giannozzi et al., J. Phys.:Condens. Matter 29 465901 (2017);
         "P. Giannozzi et al., J. Chem. Phys. 152 154105 (2020);
          URL http://www.quantum-espresso.org", 
     in publications or presentations arising from this work. More details at
     http://www.quantum-espresso.org/quote

     Parallel version (MPI & OpenMP), running on       8 processor cores
     Number of MPI processes:                 1
     Threads/MPI process:                     8

     MPI processes distributed on     1 nodes
     Reading input from pw.in
     Message from routine read_cards :
     DEPRECATED: no units specified in CELL_PARAMETERS card

     Current dimensions of program PWSCF are:
     Max number of different atomic species (ntypx) = 10
     Max number of k-points (npk) =  40000
     Max angular momentum in pseudopotentials (lmaxx) =  3
     Message from routine setup:
     using ibrav=0 with symmetry is DISCOURAGED, use correct ibrav instead

     Subspace diagonalization in iterative solution of the eigenvalue problem:
     a serial algorithm will be used


     G-vector sticks info
     --------------------
     sticks:   dense  smooth     PW     G-vecs:    dense   smooth      PW
     Sum        2477     667    227                61859     8593    1701

     Using Slab Decomposition



     bravais-lattice index     =            0
     lattice parameter (alat)  =       7.9300  a.u.
     unit-cell volume          =     249.3386 (a.u.)^3
     number of atoms/cell      =            4
     number of atomic types    =            3
     number of electrons       =        48.00
     number of Kohn-Sham states=           29
     kinetic-energy cutoff     =      40.0000  Ry
     charge density cutoff     =     600.0000  Ry
     scf convergence threshold =      1.0E-11
     mixing beta               =       0.3000
     number of iterations used =            8  plain     mixing
     Exchange-correlation= SLA  PZ   NOGX NOGC
                           (   1   1   0   0   0   0   0)

     celldm(1)=   7.930000  celldm(2)=   0.000000  celldm(3)=   0.000000
     celldm(4)=   0.000000  celldm(5)=   0.000000  celldm(6)=   0.000000

     crystal axes: (cart. coord. in units of alat)
               a(1) = (   1.000000   0.500000   0.500000 )  
               a(2) = (   0.500000   1.000000   0.500000 )  
               a(3) = (   0.500000   0.500000   1.000000 )  

     reciprocal axes: (cart. coord. in units 2 pi/alat)
               b(1) = (  1.500000 -0.500000 -0.500000 )  
               b(2) = ( -0.500000  1.500000 -0.500000 )  
               b(3) = ( -0.500000 -0.500000  1.500000 )  


     PseudoPot. # 1 for Ni read from file:
     ./ni_lda_v1.4.uspp.F.UPF
     MD5 check sum: ed768c6aea0b25a4a726b727e15de542
     Pseudo is Ultrasoft + core correction, Zval = 18.0
     Generated by new atomic code, or converted to UPF format
     Using radial grid of  865 points,  6 beta functions with: 
                l(1) =   0
                l(2) =   0
                l(3) =   1
                l(4) =   1
                l(5) =   2
                l(6) =   2
     Q(r) pseudized with 10 coefficients,  rinner =    0.980   0.980   0.980
                                                       0.980   0.980

     PseudoPot. # 2 for Ni read from file:
     ./ni_lda_v1.4.uspp.F.UPF
     MD5 check sum: ed768c6aea0b25a4a726b727e15de542
     Pseudo is Ultrasoft + core correction, Zval = 18.0
     Generated by new atomic code, or converted to UPF format
     Using radial grid of  865 points,  6 beta functions with: 
                l(1) =   0
                l(2) =   0
                l(3) =   1
                l(4) =   1
                l(5) =   2
                l(6) =   2
     Q(r) pseudized with 10 coefficients,  rinner =    0.980   0.980   0.980
                                                       0.980   0.980

     PseudoPot. # 3 for O  read from file:
     ./o_lda_v1.2.uspp.F.UPF
     MD5 check sum: 194b818514d2a7dbb603bb78519a4f40
     Pseudo is Ultrasoft + core correction, Zval =  6.0
     Generated by new atomic code, or converted to UPF format
     Using radial grid of  737 points,  5 beta functions with: 
                l(1) =   0
                l(2) =   0
                l(3) =   1
                l(4) =   1
                l(5) =   2
     Q(r) pseudized with  8 coefficients,  rinner =    0.900   0.900   0.900
                                                       0.900   0.900

     atomic species   valence    mass     pseudopotential
        Ni1           18.00     1.00000     Ni( 1.00)
        Ni2           18.00     1.00000     Ni( 1.00)
        O              6.00     1.00000     O ( 1.00)

     Starting magnetic structure 
     atomic species   magnetization
        Ni1          0.100
        Ni2         -0.100
        O            0.000

     12 Sym. Ops., with inversion, found


                                    s                        frac. trans.

      isym =  1     identity                                     

 cryst.   s( 1) = (     1          0          0      )
                  (     0          1          0      )
                  (     0          0          1      )

 cart.    s( 1) = (  1.0000000  0.0000000  0.0000000 )
                  (  0.0000000  1.0000000  0.0000000 )
                  (  0.0000000  0.0000000  1.0000000 )


      isym =  2     180 deg rotation - cart. axis [1,-1,0]       

 cryst.   s( 2) = (     0         -1          0      )
                  (    -1          0          0      )
                  (     0          0         -1      )

 cart.    s( 2) = (  0.0000000 -1.0000000  0.0000000 )
                  ( -1.0000000  0.0000000  0.0000000 )
                  (  0.0000000  0.0000000 -1.0000000 )


      isym =  3     180 deg rotation - cart. axis [-1,0,1]       

 cryst.   s( 3) = (     0          0         -1      )
                  (     0         -1          0      )
                  (    -1          0          0      )

 cart.    s( 3) = (  0.0000000  0.0000000 -1.0000000 )
                  (  0.0000000 -1.0000000  0.0000000 )
                  ( -1.0000000  0.0000000  0.0000000 )


      isym =  4     180 deg rotation - cart. axis [0,1,-1]       

 cryst.   s( 4) = (    -1          0          0      )
                  (     0          0         -1      )
                  (     0         -1          0      )

 cart.    s( 4) = ( -1.0000000  0.0000000  0.0000000 )
                  (  0.0000000  0.0000000 -1.0000000 )
                  (  0.0000000 -1.0000000  0.0000000 )


      isym =  5     120 deg rotation - cart. axis [-1,-1,-1]     

 cryst.   s( 5) = (     0          0          1      )
                  (     1          0          0      )
                  (     0          1          0      )

 cart.    s( 5) = (  0.0000000  1.0000000  0.0000000 )
                  (  0.0000000  0.0000000  1.0000000 )
                  (  1.0000000  0.0000000  0.0000000 )


      isym =  6     120 deg rotation - cart. axis [1,1,1]        

 cryst.   s( 6) = (     0          1          0      )
                  (     0          0          1      )
                  (     1          0          0      )

 cart.    s( 6) = (  0.0000000  0.0000000  1.0000000 )
                  (  1.0000000  0.0000000  0.0000000 )
                  (  0.0000000  1.0000000  0.0000000 )


      isym =  7     inversion                                    

 cryst.   s( 7) = (    -1          0          0      )
                  (     0         -1          0      )
                  (     0          0         -1      )

 cart.    s( 7) = ( -1.0000000  0.0000000  0.0000000 )
                  (  0.0000000 -1.0000000  0.0000000 )
                  (  0.0000000  0.0000000 -1.0000000 )


      isym =  8     inv. 180 deg rotation - cart. axis [1,-1,0]  

 cryst.   s( 8) = (     0          1          0      )
                  (     1          0          0      )
                  (     0          0          1      )

 cart.    s( 8) = (  0.0000000  1.0000000  0.0000000 )
                  (  1.0000000  0.0000000  0.0000000 )
                  (  0.0000000  0.0000000  1.0000000 )


      isym =  9     inv. 180 deg rotation - cart. axis [-1,0,1]  

 cryst.   s( 9) = (     0          0          1      )
                  (     0          1          0      )
                  (     1          0          0      )

 cart.    s( 9) = (  0.0000000  0.0000000  1.0000000 )
                  (  0.0000000  1.0000000  0.0000000 )
                  (  1.0000000  0.0000000  0.0000000 )


      isym = 10     inv. 180 deg rotation - cart. axis [0,1,-1]  

 cryst.   s(10) = (     1          0          0      )
                  (     0          0          1      )
                  (     0          1          0      )

 cart.    s(10) = (  1.0000000  0.0000000  0.0000000 )
                  (  0.0000000  0.0000000  1.0000000 )
                  (  0.0000000  1.0000000  0.0000000 )


      isym = 11     inv. 120 deg rotation - cart. axis [-1,-1,-1]

 cryst.   s(11) = (     0          0         -1      )
                  (    -1          0          0      )
                  (     0         -1          0      )

 cart.    s(11) = (  0.0000000 -1.0000000  0.0000000 )
                  (  0.0000000  0.0000000 -1.0000000 )
                  ( -1.0000000  0.0000000  0.0000000 )


      isym = 12     inv. 120 deg rotation - cart. axis [1,1,1]   

 cryst.   s(12) = (     0         -1          0      )
                  (     0          0         -1      )
                  (    -1          0          0      )

 cart.    s(12) = (  0.0000000  0.0000000 -1.0000000 )
                  ( -1.0000000  0.0000000  0.0000000 )
                  (  0.0000000 -1.0000000  0.0000000 )


   Cartesian axes

     site n.     atom                  positions (alat units)
         1           Ni1 tau(   1) = (   0.0000000   0.0000000   0.0000000  )
         2           Ni2 tau(   2) = (   1.0000000   1.0000000   1.0000000  )
         3           O   tau(   3) = (   0.5000000   0.5000000   0.5000000  )
         4           O   tau(   4) = (   1.5000000   1.5000000   1.5000000  )

   Crystallographic axes

     site n.     atom                  positions (cryst. coord.)
         1           Ni1 tau(   1) = (  0.0000000  0.0000000  0.0000000  )
         2           Ni2 tau(   2) = (  0.5000000  0.5000000  0.5000000  )
         3           O   tau(   3) = (  0.2500000  0.2500000  0.2500000  )
         4           O   tau(   4) = (  0.7500000  0.7500000  0.7500000  )

     number of k points=    13  Gaussian smearing, width (Ry)=  0.0200
                       cart. coord. in units 2pi/alat
        k(    1) = (   0.0000000   0.0000000   0.0000000), wk =   0.0156250
        k(    2) = (  -0.1250000  -0.1250000   0.3750000), wk =   0.0937500
        k(    3) = (   0.2500000   0.2500000  -0.7500000), wk =   0.0468750
        k(    4) = (  -0.2500000   0.2500000   0.2500000), wk =   0.0937500
        k(    5) = (   0.1250000   0.6250000  -0.8750000), wk =   0.1875000
        k(    6) = (   0.0000000   0.5000000  -0.5000000), wk =   0.0937500
        k(    7) = (   0.5000000  -0.5000000  -0.5000000), wk =   0.0468750
        k(    8) = (   0.1250000   0.1250000   0.1250000), wk =   0.0312500
        k(    9) = (   0.5000000   0.5000000  -1.0000000), wk =   0.0937500
        k(   10) = (   0.3750000   0.3750000  -0.6250000), wk =   0.0937500
        k(   11) = (   0.8750000  -0.6250000  -0.6250000), wk =   0.0937500
        k(   12) = (   0.7500000  -0.7500000  -0.2500000), wk =   0.0937500
        k(   13) = (  -0.2500000  -0.2500000  -0.2500000), wk =   0.0156250

                       cryst. coord.
        k(    1) = (   0.0000000   0.0000000   0.0000000), wk =   0.0156250
        k(    2) = (   0.0000000   0.0000000   0.2500000), wk =   0.0937500
        k(    3) = (   0.0000000   0.0000000  -0.5000000), wk =   0.0468750
        k(    4) = (   0.0000000   0.2500000   0.2500000), wk =   0.0937500
        k(    5) = (   0.0000000   0.2500000  -0.5000000), wk =   0.1875000
        k(    6) = (   0.0000000   0.2500000  -0.2500000), wk =   0.0937500
        k(    7) = (   0.0000000  -0.5000000  -0.5000000), wk =   0.0468750
        k(    8) = (   0.2500000   0.2500000   0.2500000), wk =   0.0312500
        k(    9) = (   0.2500000   0.2500000  -0.5000000), wk =   0.0937500
        k(   10) = (   0.2500000   0.2500000  -0.2500000), wk =   0.0937500
        k(   11) = (   0.2500000  -0.5000000  -0.5000000), wk =   0.0937500
        k(   12) = (   0.2500000  -0.5000000  -0.2500000), wk =   0.0937500
        k(   13) = (  -0.5000000  -0.5000000  -0.5000000), wk =   0.0156250

     Dense  grid:    61859 G-vectors     FFT dimensions: (  75,  75,  75)

     Smooth grid:     8593 G-vectors     FFT dimensions: (  40,  40,  40)

     Dynamical RAM for                 wfc:       0.47 MB

     Dynamical RAM for     wfc (w. buffer):      12.72 MB

     Dynamical RAM for           str. fact:       2.83 MB

     Dynamical RAM for           local pot:       0.00 MB

     Dynamical RAM for          nlocal pot:       1.01 MB

     Dynamical RAM for                qrad:       5.90 MB

     Dynamical RAM for          rho,v,vnew:      24.98 MB

     Dynamical RAM for               rhoin:       8.33 MB

     Dynamical RAM for            rho*nmix:      30.20 MB

     Dynamical RAM for           G-vectors:       3.61 MB

     Dynamical RAM for          h,s,v(r/c):       0.15 MB

     Dynamical RAM for          <psi|beta>:       0.03 MB

     Dynamical RAM for                 psi:       0.94 MB

     Dynamical RAM for                hpsi:       0.94 MB

     Dynamical RAM for                spsi:       0.94 MB

     Dynamical RAM for      wfcinit/wfcrot:       1.13 MB

     Dynamical RAM for           addusdens:     178.40 MB

     Dynamical RAM for          addusforce:     180.30 MB

     Dynamical RAM for         addusstress:     191.14 MB

     Estimated static dynamical RAM per process >      82.45 MB

     Estimated max dynamical RAM per process >     303.79 MB

     Check: negative core charge=   -0.000010
     Generating pointlists ...
     new r_m :   0.2063 (alat units)  1.6356 (a.u.) for type    1
     new r_m :   0.2063 (alat units)  1.6356 (a.u.) for type    2
     new r_m :   0.2063 (alat units)  1.6356 (a.u.) for type    3

     Initial potential from superposition of free atoms

     starting charge   44.00000, renormalised to   48.00000
     Starting wfcs are   34 randomized atomic wfcs

     total cpu time spent up to now is        3.5 secs

     Self-consistent Calculation

     iteration #  1     ecut=    40.00 Ry     beta= 0.30
     Davidson diagonalization with overlap
     ethr =  1.00E-02,  avg # of iterations =  3.9

     total cpu time spent up to now is        9.2 secs

     total energy              =    -729.77053852 Ry
     Harris-Foulkes estimate   =    -762.09710941 Ry
     estimated scf accuracy    <      68.67585616 Ry
 
     Band energy sum           =     -13.24514952 Ry

     total magnetization       =     0.00 Bohr mag/cell
     absolute magnetization    =     1.87 Bohr mag/cell

     iteration #  2     ecut=    40.00 Ry     beta= 0.30
     Davidson diagonalization with overlap
     ethr =  1.00E-02,  avg # of iterations =  3.1

     total cpu time spent up to now is       15.0 secs

     total energy              =    -748.71460479 Ry
     Harris-Foulkes estimate   =    -757.20313389 Ry
     estimated scf accuracy    <      27.03028001 Ry
 
     Band energy sum           =     -80.46669869 Ry

     total magnetization       =     0.00 Bohr mag/cell
     absolute magnetization    =     0.16 Bohr mag/cell

     iteration #  3     ecut=    40.00 Ry     beta= 0.30
     Davidson diagonalization with overlap
     ethr =  1.00E-02,  avg # of iterations =  2.1

     total cpu time spent up to now is       19.7 secs

     total energy              =    -750.60594271 Ry
     Harris-Foulkes estimate   =    -750.91574659 Ry
     estimated scf accuracy    <       0.93161421 Ry
 
     Band energy sum           =     -53.70149480 Ry

     total magnetization       =     0.00 Bohr mag/cell
     absolute magnetization    =     1.60 Bohr mag/cell

     iteration #  4     ecut=    40.00 Ry     beta= 0.30
     Davidson diagonalization with overlap
     ethr =  1.94E-03,  avg # of iterations =  2.0

     total cpu time spent up to now is       24.2 secs

     total energy              =    -750.77717512 Ry
     Harris-Foulkes estimate   =    -750.85433103 Ry
     estimated scf accuracy    <       0.21022773 Ry
 
     Band energy sum           =     -49.13697762 Ry

     total magnetization       =    -0.03 Bohr mag/cell
     absolute magnetization    =     2.67 Bohr mag/cell

     iteration #  5     ecut=    40.00 Ry     beta= 0.30
     Davidson diagonalization with overlap
     ethr =  4.38E-04,  avg # of iterations =  2.0

     total cpu time spent up to now is       28.7 secs

     total energy              =    -750.83591567 Ry
     Harris-Foulkes estimate   =    -750.84173476 Ry
     estimated scf accuracy    <       0.16509450 Ry
 
     Band energy sum           =     -51.35252406 Ry

     total magnetization       =     0.09 Bohr mag/cell
     absolute magnetization    =     2.18 Bohr mag/cell

     iteration #  6     ecut=    40.00 Ry     beta= 0.30
     Davidson diagonalization with overlap
     ethr =  3.44E-04,  avg # of iterations =  1.0

     total cpu time spent up to now is       32.7 secs

     total energy              =    -750.82010310 Ry
     Harris-Foulkes estimate   =    -750.84338938 Ry
     estimated scf accuracy    <       0.14911900 Ry
 
     Band energy sum           =     -51.39656721 Ry

     total magnetization       =    -0.05 Bohr mag/cell
     absolute magnetization    =     2.19 Bohr mag/cell

     iteration #  7     ecut=    40.00 Ry     beta= 0.30
     Davidson diagonalization with overlap
     ethr =  3.11E-04,  avg # of iterations =  1.0

     total cpu time spent up to now is       36.7 secs

     total energy              =    -750.82271977 Ry
     Harris-Foulkes estimate   =    -750.82952251 Ry
     estimated scf accuracy    <       0.00913902 Ry
 
     Band energy sum           =     -50.35779435 Ry

     total magnetization       =    -0.01 Bohr mag/cell
     absolute magnetization    =     2.57 Bohr mag/cell

     iteration #  8     ecut=    40.00 Ry     beta= 0.30
     Davidson diagonalization with overlap
     ethr =  1.90E-05,  avg # of iterations =  3.7

     total cpu time spent up to now is       42.0 secs

     total energy              =    -750.82633513 Ry
     Harris-Foulkes estimate   =    -750.84073734 Ry
     estimated scf accuracy    <       0.07626747 Ry
 
     Band energy sum           =     -49.28373581 Ry

     total magnetization       =     0.02 Bohr mag/cell
     absolute magnetization    =     2.84 Bohr mag/cell

     iteration #  9     ecut=    40.00 Ry     beta= 0.30
     Davidson diagonalization with overlap
     ethr =  1.90E-05,  avg # of iterations =  2.4

     total cpu time spent up to now is       46.6 secs

     total energy              =    -750.82879434 Ry
     Harris-Foulkes estimate   =    -750.83038263 Ry
     estimated scf accuracy    <       0.01049229 Ry
 
     Band energy sum           =     -49.92288723 Ry

     total magnetization       =    -0.00 Bohr mag/cell
     absolute magnetization    =     2.76 Bohr mag/cell

     iteration # 10     ecut=    40.00 Ry     beta= 0.30
     Davidson diagonalization with overlap
     ethr =  1.90E-05,  avg # of iterations =  1.5

     total cpu time spent up to now is       50.7 secs

     total energy              =    -750.82894372 Ry
     Harris-Foulkes estimate   =    -750.82931161 Ry
     estimated scf accuracy    <       0.00169799 Ry
 
     Band energy sum           =     -50.13564581 Ry

     total magnetization       =    -0.00 Bohr mag/cell
     absolute magnetization    =     2.75 Bohr mag/cell

     iteration # 11     ecut=    40.00 Ry     beta= 0.30
     Davidson diagonalization with overlap
     ethr =  3.54E-06,  avg # of iterations =  2.0

     total cpu time spent up to now is       55.1 secs

     total energy              =    -750.82915334 Ry
     Harris-Foulkes estimate   =    -750.82914667 Ry
     estimated scf accuracy    <       0.00002707 Ry
 
     Band energy sum           =     -50.22675059 Ry

     total magnetization       =    -0.00 Bohr mag/cell
     absolute magnetization    =     2.74 Bohr mag/cell

     iteration # 12     ecut=    40.00 Ry     beta= 0.30
     Davidson diagonalization with overlap
     ethr =  5.64E-08,  avg # of iterations =  2.0

     total cpu time spent up to now is       59.4 secs

     total energy              =    -750.82914752 Ry
     Harris-Foulkes estimate   =    -750.82915898 Ry
     estimated scf accuracy    <       0.00005584 Ry
 
     Band energy sum           =     -50.19840815 Ry

     total magnetization       =    -0.00 Bohr mag/cell
     absolute magnetization    =     2.75 Bohr mag/cell

     iteration # 13     ecut=    40.00 Ry     beta= 0.30
     Davidson diagonalization with overlap
     ethr =  5.64E-08,  avg # of iterations =  2.0

     total cpu time spent up to now is       63.8 secs

     total energy              =    -750.82914939 Ry
     Harris-Foulkes estimate   =    -750.82915180 Ry
     estimated scf accuracy    <       0.00000552 Ry
 
     Band energy sum           =     -50.22397664 Ry

     total magnetization       =     0.00 Bohr mag/cell
     absolute magnetization    =     2.75 Bohr mag/cell

     iteration # 14     ecut=    40.00 Ry     beta= 0.30
     Davidson diagonalization with overlap
     ethr =  1.15E-08,  avg # of iterations =  2.4

     total cpu time spent up to now is       68.4 secs

     total energy              =    -750.82915047 Ry
     Harris-Foulkes estimate   =    -750.82915140 Ry
     estimated scf accuracy    <       0.00000298 Ry
 
     Band energy sum           =     -50.24097223 Ry

     total magnetization       =     0.00 Bohr mag/cell
     absolute magnetization    =     2.75 Bohr mag/cell

     iteration # 15     ecut=    40.00 Ry     beta= 0.30
     Davidson diagonalization with overlap
     ethr =  6.20E-09,  avg # of iterations =  1.9

     total cpu time spent up to now is       72.6 secs

     total energy              =    -750.82915075 Ry
     Harris-Foulkes estimate   =    -750.82915080 Ry
     estimated scf accuracy    <       0.00000046 Ry
 
     Band energy sum           =     -50.22997085 Ry

     total magnetization       =    -0.00 Bohr mag/cell
     absolute magnetization    =     2.75 Bohr mag/cell

     iteration # 16     ecut=    40.00 Ry     beta= 0.30
     Davidson diagonalization with overlap
     ethr =  9.63E-10,  avg # of iterations =  2.0

     total cpu time spent up to now is       77.1 secs

     total energy              =    -750.82915081 Ry
     Harris-Foulkes estimate   =    -750.82915086 Ry
     estimated scf accuracy    <       0.00000022 Ry
 
     Band energy sum           =     -50.22824560 Ry

     total magnetization       =    -0.00 Bohr mag/cell
     absolute magnetization    =     2.75 Bohr mag/cell

     iteration # 17     ecut=    40.00 Ry     beta= 0.30
     Davidson diagonalization with overlap
     ethr =  4.49E-10,  avg # of iterations =  2.0

     total cpu time spent up to now is       81.3 secs

     total energy              =    -750.82915083 Ry
     Harris-Foulkes estimate   =    -750.82915083 Ry
     estimated scf accuracy    <       0.00000001 Ry
 
     Band energy sum           =     -50.23056423 Ry

     total magnetization       =    -0.00 Bohr mag/cell
     absolute magnetization    =     2.75 Bohr mag/cell

     iteration # 18     ecut=    40.00 Ry     beta= 0.30
     Davidson diagonalization with overlap
     ethr =  2.56E-11,  avg # of iterations =  2.0

     total cpu time spent up to now is       85.8 secs

     total energy              =    -750.82915084 Ry
     Harris-Foulkes estimate   =    -750.82915084 Ry
     estimated scf accuracy    <          2.7E-10 Ry
 
     Band energy sum           =     -50.23104513 Ry

     total magnetization       =    -0.00 Bohr mag/cell
     absolute magnetization    =     2.75 Bohr mag/cell

     iteration # 19     ecut=    40.00 Ry     beta= 0.30
     Davidson diagonalization with overlap
     ethr =  5.67E-13,  avg # of iterations =  2.0

     total cpu time spent up to now is       90.0 secs

     total energy              =    -750.82915084 Ry
     Harris-Foulkes estimate   =    -750.82915084 Ry
     estimated scf accuracy    <          4.8E-11 Ry
 
     Band energy sum           =     -50.23103616 Ry

     total magnetization       =     0.00 Bohr mag/cell
     absolute magnetization    =     2.75 Bohr mag/cell

     iteration # 20     ecut=    40.00 Ry     beta= 0.30
     Davidson diagonalization with overlap
     ethr =  1.01E-13,  avg # of iterations =  2.0

     total cpu time spent up to now is       94.7 secs

     total energy              =    -750.82915084 Ry
     Harris-Foulkes estimate   =    -750.82915084 Ry
     estimated scf accuracy    <          3.6E-11 Ry
 
     Band energy sum           =     -50.23098851 Ry

     total magnetization       =     0.00 Bohr mag/cell
     absolute magnetization    =     2.75 Bohr mag/cell

     iteration # 21     ecut=    40.00 Ry     beta= 0.30
     Davidson diagonalization with overlap
     ethr =  1.00E-13,  avg # of iterations =  1.8

     Magnetic moment per site:
     atom:    1    charge:   15.7062    magn:    1.2476    constr:    0.0000
     atom:    2    charge:   15.7062    magn:   -1.2476    constr:    0.0000
     atom:    3    charge:    5.6292    magn:    0.0000    constr:    0.0000
     atom:    4    charge:    5.6292    magn:    0.0000    constr:    0.0000

     total cpu time spent up to now is       99.1 secs

     End of self-consistent calculation

 ------ SPIN UP ------------


          k = 0.0000 0.0000 0.0000 (  1075 PWs)   bands (ev):

   -89.8224 -88.1618 -50.6588 -50.6149 -50.6149 -49.0487 -49.0234 -49.0234
    -6.3795  -4.9504   5.4352   8.1094   8.1094  10.6312  10.6312  10.6326
    11.2032  11.2032  11.2862  11.6035  11.6035  12.5723  12.5723  12.8587
    14.8462  14.8462  15.0757  19.0399  23.3410

     occupation numbers 
     1.0000   1.0000   1.0000   1.0000   1.0000   1.0000   1.0000   1.0000
     1.0000   1.0000   1.0000   1.0000   1.0000   1.0000   1.0000   1.0000
     1.0000   1.0000   1.0000   1.0000   1.0000   1.0000   1.0000   0.9992
     0.0000   0.0000   0.0000   0.0000   0.0000

          k =-0.1250-0.1250 0.3750 (  1070 PWs)   bands (ev):

   -89.8215 -88.1608 -50.6571 -50.6260 -50.6177 -49.0470 -49.0357 -49.0265
    -5.7883  -4.8591   6.3800   7.6355   7.7329   8.2523   9.2197   9.4292
    11.1726  11.6730  11.8302  12.1929  12.3471  12.6639  12.9352  12.9746
    13.9223  14.4737  17.9628  21.6855  22.6011

     occupation numbers 
     1.0000   1.0000   1.0000   1.0000   1.0000   1.0000   1.0000   1.0000
     1.0000   1.0000   1.0000   1.0000   1.0000   1.0000   1.0000   1.0000
     1.0000   1.0000   1.0000   1.0000   1.0000   1.0000   0.9970   0.9945
     0.0086   0.0000   0.0000   0.0000   0.0000

          k = 0.2500 0.2500-0.7500 (  1076 PWs)   bands (ev):

   -89.8206 -88.1598 -50.6557 -50.6372 -50.6205 -49.0481 -49.0454 -49.0296
    -4.9327  -4.9238   6.4280   6.5130   7.8007   8.0580   8.3992   8.7906
    11.1277  11.8060  12.0779  12.1200  12.7590  12.8704  12.9817  13.1394
    14.1495  14.1725  20.8390  20.9595  23.0997

     occupation numbers 
     1.0000   1.0000   1.0000   1.0000   1.0000   1.0000   1.0000   1.0000
     1.0000   1.0000   1.0000   1.0000   1.0000   1.0000   1.0000   1.0000
     1.0000   1.0000   1.0000   1.0000   0.9999   0.9990   0.9939   0.9543
     0.0002   0.0001   0.0000   0.0000   0.0000

          k =-0.2500 0.2500 0.2500 (  1081 PWs)   bands (ev):

   -89.8215 -88.1608 -50.6571 -50.6261 -50.6177 -49.0470 -49.0358 -49.0265
    -5.7315  -4.9284   6.4712   7.5084   7.9016   8.5071   8.9666   9.0177
    11.2564  11.6077  11.7278  12.3386  12.4724  12.7482  13.0587  13.1881
    14.1487  14.1777  17.7558  20.9005  23.1435

     occupation numbers 
     1.0000   1.0000   1.0000   1.0000   1.0000   1.0000   1.0000   1.0000
     1.0000   1.0000   1.0000   1.0000   1.0000   1.0000   1.0000   1.0000
     1.0000   1.0000   1.0000   1.0000   1.0000   0.9999   0.9825   0.9244
     0.0002   0.0001   0.0000   0.0000   0.0000

          k = 0.1250 0.6250-0.8750 (  1060 PWs)   bands (ev):

   -89.8206 -88.1598 -50.6554 -50.6330 -50.6247 -49.0452 -49.0434 -49.0342
    -5.0384  -4.8209   6.3956   6.9079   7.6919   8.0947   8.3154   8.4543
    11.5038  11.6782  11.8791  12.3329  12.4678  12.8319  12.9258  13.0942
    13.9939  14.5154  20.5744  21.5453  23.3508

     occupation numbers 
     1.0000   1.0000   1.0000   1.0000   1.0000   1.0000   1.0000   1.0000
     1.0000   1.0000   1.0000   1.0000   1.0000   1.0000   1.0000   1.0000
     1.0000   1.0000   1.0000   1.0000   1.0000   0.9995   0.9974   0.9728
     0.0030   0.0000   0.0000   0.0000   0.0000

          k = 0.0000 0.5000-0.5000 (  1064 PWs)   bands (ev):

   -89.8206 -88.1598 -50.6555 -50.6330 -50.6247 -49.0453 -49.0434 -49.0342
    -5.0848  -4.7772   6.4621   7.5082   7.5120   7.8723   8.1559   8.2520
    11.6079  11.8505  11.9035  12.2249  12.3371  12.6359  12.9088  13.0904
    13.8283  14.8383  20.4713  21.8740  24.0649

     occupation numbers 
     1.0000   1.0000   1.0000   1.0000   1.0000   1.0000   1.0000   1.0000
     1.0000   1.0000   1.0000   1.0000   1.0000   1.0000   1.0000   1.0000
     1.0000   1.0000   1.0000   1.0000   1.0000   1.0000   0.9981   0.9740
     0.0292   0.0000   0.0000   0.0000   0.0000

          k = 0.5000-0.5000-0.5000 (  1068 PWs)   bands (ev):

   -89.8206 -88.1598 -50.6555 -50.6372 -50.6205 -49.0480 -49.0452 -49.0296
    -4.9502  -4.8912   5.4344   6.7199   8.1104   8.1220   9.3336   9.3343
    10.4151  11.7398  11.9416  12.0744  12.3429  12.6792  12.9968  13.1176
    14.8735  14.9175  19.0427  19.5540  23.3410

     occupation numbers 
     1.0000   1.0000   1.0000   1.0000   1.0000   1.0000   1.0000   1.0000
     1.0000   1.0000   1.0000   1.0000   1.0000   1.0000   1.0000   1.0000
     1.0000   1.0000   1.0000   1.0000   1.0000   1.0000   0.9924   0.9642
     0.0000   0.0000   0.0000   0.0000   0.0000

          k = 0.1250 0.1250 0.1250 (  1068 PWs)   bands (ev):

   -89.8224 -88.1618 -50.6585 -50.6149 -50.6149 -49.0486 -49.0233 -49.0233
    -6.2002  -5.1976   6.0159   8.3041   8.3041   9.3840   9.8872   9.8872
    11.2563  11.2563  11.5463  12.3642  12.3642  12.5262  12.5262  12.7163
    14.5893  14.5893  16.0677  18.8454  23.7802

     occupation numbers 
     1.0000   1.0000   1.0000   1.0000   1.0000   1.0000   1.0000   1.0000
     1.0000   1.0000   1.0000   1.0000   1.0000   1.0000   1.0000   1.0000
     1.0000   1.0000   1.0000   1.0000   1.0000   1.0000   1.0000   0.9999
     0.0000   0.0000   0.0000   0.0000   0.0000

          k = 0.5000 0.5000-1.0000 (  1068 PWs)   bands (ev):

   -89.8215 -88.1608 -50.6570 -50.6260 -50.6177 -49.0470 -49.0356 -49.0265
    -5.5934  -5.0850   6.4612   7.2121   8.1482   8.2404   9.5694   9.5774
    10.8405  11.7470  11.7914  11.9506  12.1122  12.6994  12.8626  13.0363
    13.5668  14.7861  18.9160  20.4712  24.2719

     occupation numbers 
     1.0000   1.0000   1.0000   1.0000   1.0000   1.0000   1.0000   1.0000
     1.0000   1.0000   1.0000   1.0000   1.0000   1.0000   1.0000   1.0000
     1.0000   1.0000   1.0000   1.0000   1.0000   1.0000   0.9991   0.9869
     0.2969   0.0000   0.0000   0.0000   0.0000

          k = 0.3750 0.3750-0.6250 (  1065 PWs)   bands (ev):

   -89.8206 -88.1598 -50.6555 -50.6371 -50.6205 -49.0480 -49.0452 -49.0296
    -4.9456  -4.9033   5.7523   6.7496   8.0082   8.2152   8.6127   9.0911
    10.8413  11.7879  11.9787  12.3061  12.4067  12.6626  12.9898  13.1300
    14.5383  14.5717  19.9120  20.1065  23.1511

     occupation numbers 
     1.0000   1.0000   1.0000   1.0000   1.0000   1.0000   1.0000   1.0000
     1.0000   1.0000   1.0000   1.0000   1.0000   1.0000   1.0000   1.0000
     1.0000   1.0000   1.0000   1.0000   1.0000   1.0000   0.9932   0.9588
     0.0000   0.0000   0.0000   0.0000   0.0000

          k = 0.8750-0.6250-0.6250 (  1070 PWs)   bands (ev):

   -89.8215 -88.1608 -50.6570 -50.6261 -50.6177 -49.0470 -49.0357 -49.0264
    -5.4490  -5.2418   6.7117   6.8914   8.4608   8.6642   8.9064   9.1645
    10.9896  11.6173  11.7774  12.1815  12.3958  12.6600  12.9796  12.9864
    13.8668  14.5791  18.8520  19.8864  24.5499

     occupation numbers 
     1.0000   1.0000   1.0000   1.0000   1.0000   1.0000   1.0000   1.0000
     1.0000   1.0000   1.0000   1.0000   1.0000   1.0000   1.0000   1.0000
     1.0000   1.0000   1.0000   1.0000   1.0000   1.0000   0.9941   0.9935
     0.0182   0.0000   0.0000   0.0000   0.0000

          k = 0.7500-0.7500-0.2500 (  1076 PWs)   bands (ev):

   -89.8206 -88.1598 -50.6555 -50.6331 -50.6248 -49.0453 -49.0434 -49.0343
    -4.9294  -4.9272   6.4642   6.4770   7.8619   7.9500   8.5157   8.7046
    11.3795  11.5098  11.8929  12.3880  12.6488  13.0077  13.0331  13.0653
    14.1447  14.1484  20.8437  20.9584  23.0923

     occupation numbers 
     1.0000   1.0000   1.0000   1.0000   1.0000   1.0000   1.0000   1.0000
     1.0000   1.0000   1.0000   1.0000   1.0000   1.0000   1.0000   1.0000
     1.0000   1.0000   1.0000   1.0000   1.0000   0.9912   0.9875   0.9809
     0.0002   0.0002   0.0000   0.0000   0.0000

          k =-0.2500-0.2500-0.2500 (  1086 PWs)   bands (ev):

   -89.8224 -88.1618 -50.6586 -50.6150 -50.6150 -49.0488 -49.0234 -49.0234
    -5.7369  -5.7264   7.4710   7.5494   8.6901   8.6901   9.2026   9.2026
    11.3130  11.3130  11.6470  12.4259  12.4259  12.5623  13.0651  13.0651
    14.1896  14.1896  17.7000  17.8112  25.5066

     occupation numbers 
     1.0000   1.0000   1.0000   1.0000   1.0000   1.0000   1.0000   1.0000
     1.0000   1.0000   1.0000   1.0000   1.0000   1.0000   1.0000   1.0000
     1.0000   1.0000   1.0000   1.0000   1.0000   1.0000   0.9810   0.9810
     0.0001   0.0001   0.0000   0.0000   0.0000

 ------ SPIN DOWN ----------


          k = 0.0000 0.0000 0.0000 (  1075 PWs)   bands (ev):

   -89.8224 -88.1618 -50.6588 -50.6149 -50.6149 -49.0487 -49.0234 -49.0234
    -6.3795  -4.9504   5.4352   8.1094   8.1094  10.6312  10.6312  10.6326
    11.2032  11.2032  11.2862  11.6035  11.6035  12.5723  12.5723  12.8587
    14.8462  14.8462  15.0757  19.0399  23.3410

     occupation numbers 
     1.0000   1.0000   1.0000   1.0000   1.0000   1.0000   1.0000   1.0000
     1.0000   1.0000   1.0000   1.0000   1.0000   1.0000   1.0000   1.0000
     1.0000   1.0000   1.0000   1.0000   1.0000   1.0000   1.0000   0.9992
     0.0000   0.0000   0.0000   0.0000   0.0000

          k =-0.1250-0.1250 0.3750 (  1070 PWs)   bands (ev):

   -89.8215 -88.1608 -50.6571 -50.6260 -50.6177 -49.0470 -49.0357 -49.0265
    -5.7883  -4.8591   6.3800   7.6355   7.7329   8.2523   9.2197   9.4292
    11.1726  11.6730  11.8302  12.1929  12.3471  12.6639  12.9352  12.9746
    13.9223  14.4737  17.9628  21.6855  22.6011

     occupation numbers 
     1.0000   1.0000   1.0000   1.0000   1.0000   1.0000   1.0000   1.0000
     1.0000   1.0000   1.0000   1.0000   1.0000   1.0000   1.0000   1.0000
     1.0000   1.0000   1.0000   1.0000   1.0000   1.0000   0.9970   0.9945
     0.0086   0.0000   0.0000   0.0000   0.0000

          k = 0.2500 0.2500-0.7500 (  1076 PWs)   bands (ev):

   -89.8206 -88.1598 -50.6557 -50.6372 -50.6205 -49.0481 -49.0454 -49.0296
    -4.9327  -4.9238   6.4280   6.5130   7.8007   8.0580   8.3992   8.7906
    11.1277  11.8060  12.0779  12.1200  12.7590  12.8704  12.9817  13.1394
    14.1495  14.1725  20.8390  20.9595  23.0997

     occupation numbers 
     1.0000   1.0000   1.0000   1.0000   1.0000   1.0000   1.0000   1.0000
     1.0000   1.0000   1.0000   1.0000   1.0000   1.0000   1.0000   1.0000
     1.0000   1.0000   1.0000   1.0000   0.9999   0.9990   0.9939   0.9543
     0.0002   0.0001   0.0000   0.0000   0.0000

          k =-0.2500 0.2500 0.2500 (  1081 PWs)   bands (ev):

   -89.8215 -88.1608 -50.6571 -50.6261 -50.6177 -49.0470 -49.0358 -49.0265
    -5.7315  -4.9284   6.4712   7.5084   7.9016   8.5071   8.9666   9.0177
    11.2564  11.6077  11.7278  12.3386  12.4724  12.7482  13.0587  13.1881
    14.1487  14.1777  17.7558  20.9005  23.1435

     occupation numbers 
     1.0000   1.0000   1.0000   1.0000   1.0000   1.0000   1.0000   1.0000
     1.0000   1.0000   1.0000   1.0000   1.0000   1.0000   1.0000   1.0000
     1.0000   1.0000   1.0000   1.0000   1.0000   0.9999   0.9825   0.9244
     0.0002   0.0001   0.0000   0.0000   0.0000

          k = 0.1250 0.6250-0.8750 (  1060 PWs)   bands (ev):

   -89.8206 -88.1598 -50.6554 -50.6330 -50.6247 -49.0452 -49.0434 -49.0342
    -5.0384  -4.8209   6.3956   6.9079   7.6919   8.0947   8.3154   8.4543
    11.5038  11.6782  11.8791  12.3329  12.4678  12.8319  12.9258  13.0942
    13.9939  14.5154  20.5744  21.5453  23.3508

     occupation numbers 
     1.0000   1.0000   1.0000   1.0000   1.0000   1.0000   1.0000   1.0000
     1.0000   1.0000   1.0000   1.0000   1.0000   1.0000   1.0000   1.0000
     1.0000   1.0000   1.0000   1.0000   1.0000   0.9995   0.9974   0.9728
     0.0030   0.0000   0.0000   0.0000   0.0000

          k = 0.0000 0.5000-0.5000 (  1064 PWs)   bands (ev):

   -89.8206 -88.1598 -50.6555 -50.6330 -50.6247 -49.0453 -49.0434 -49.0342
    -5.0848  -4.7772   6.4621   7.5082   7.5120   7.8723   8.1559   8.2520
    11.6079  11.8505  11.9035  12.2249  12.3371  12.6359  12.9088  13.0904
    13.8283  14.8383  20.4713  21.8740  24.0649

     occupation numbers 
     1.0000   1.0000   1.0000   1.0000   1.0000   1.0000   1.0000   1.0000
     1.0000   1.0000   1.0000   1.0000   1.0000   1.0000   1.0000   1.0000
     1.0000   1.0000   1.0000   1.0000   1.0000   1.0000   0.9981   0.9740
     0.0292   0.0000   0.0000   0.0000   0.0000

          k = 0.5000-0.5000-0.5000 (  1068 PWs)   bands (ev):

   -89.8206 -88.1598 -50.6555 -50.6372 -50.6205 -49.0480 -49.0452 -49.0296
    -4.9501  -4.8912   5.4344   6.7199   8.1104   8.1220   9.3336   9.3343
    10.4151  11.7398  11.9416  12.0744  12.3429  12.6792  12.9968  13.1176
    14.8735  14.9175  19.0427  19.5539  23.3410

     occupation numbers 
     1.0000   1.0000   1.0000   1.0000   1.0000   1.0000   1.0000   1.0000
     1.0000   1.0000   1.0000   1.0000   1.0000   1.0000   1.0000   1.0000
     1.0000   1.0000   1.0000   1.0000   1.0000   1.0000   0.9924   0.9642
     0.0000   0.0000   0.0000   0.0000   0.0000

          k = 0.1250 0.1250 0.1250 (  1068 PWs)   bands (ev):

   -89.8224 -88.1618 -50.6585 -50.6148 -50.6148 -49.0486 -49.0233 -49.0233
    -6.2002  -5.1976   6.0159   8.3041   8.3041   9.3840   9.8872   9.8872
    11.2563  11.2563  11.5463  12.3642  12.3642  12.5262  12.5262  12.7163
    14.5893  14.5893  16.0677  18.8454  23.7802

     occupation numbers 
     1.0000   1.0000   1.0000   1.0000   1.0000   1.0000   1.0000   1.0000
     1.0000   1.0000   1.0000   1.0000   1.0000   1.0000   1.0000   1.0000
     1.0000   1.0000   1.0000   1.0000   1.0000   1.0000   1.0000   0.9999
     0.0000   0.0000   0.0000   0.0000   0.0000

          k = 0.5000 0.5000-1.0000 (  1068 PWs)   bands (ev):

   -89.8215 -88.1608 -50.6570 -50.6260 -50.6177 -49.0470 -49.0356 -49.0265
    -5.5934  -5.0850   6.4612   7.2121   8.1482   8.2404   9.5694   9.5774
    10.8405  11.7470  11.7914  11.9506  12.1122  12.6994  12.8626  13.0363
    13.5668  14.7861  18.9160  20.4712  24.2719

     occupation numbers 
     1.0000   1.0000   1.0000   1.0000   1.0000   1.0000   1.0000   1.0000
     1.0000   1.0000   1.0000   1.0000   1.0000   1.0000   1.0000   1.0000
     1.0000   1.0000   1.0000   1.0000   1.0000   1.0000   0.9991   0.9869
     0.2969   0.0000   0.0000   0.0000   0.0000

          k = 0.3750 0.3750-0.6250 (  1065 PWs)   bands (ev):

   -89.8206 -88.1598 -50.6555 -50.6371 -50.6205 -49.0480 -49.0452 -49.0295
    -4.9456  -4.9033   5.7523   6.7496   8.0082   8.2152   8.6127   9.0911
    10.8413  11.7879  11.9787  12.3061  12.4067  12.6626  12.9898  13.1300
    14.5384  14.5717  19.9120  20.1065  23.1511

     occupation numbers 
     1.0000   1.0000   1.0000   1.0000   1.0000   1.0000   1.0000   1.0000
     1.0000   1.0000   1.0000   1.0000   1.0000   1.0000   1.0000   1.0000
     1.0000   1.0000   1.0000   1.0000   1.0000   1.0000   0.9932   0.9588
     0.0000   0.0000   0.0000   0.0000   0.0000

          k = 0.8750-0.6250-0.6250 (  1070 PWs)   bands (ev):

   -89.8215 -88.1608 -50.6570 -50.6261 -50.6177 -49.0470 -49.0357 -49.0264
    -5.4490  -5.2418   6.7117   6.8914   8.4608   8.6642   8.9064   9.1645
    10.9896  11.6173  11.7774  12.1815  12.3958  12.6600  12.9796  12.9864
    13.8668  14.5791  18.8520  19.8865  24.5498

     occupation numbers 
     1.0000   1.0000   1.0000   1.0000   1.0000   1.0000   1.0000   1.0000
     1.0000   1.0000   1.0000   1.0000   1.0000   1.0000   1.0000   1.0000
     1.0000   1.0000   1.0000   1.0000   1.0000   1.0000   0.9941   0.9935
     0.0182   0.0000   0.0000   0.0000   0.0000

          k = 0.7500-0.7500-0.2500 (  1076 PWs)   bands (ev):

   -89.8206 -88.1598 -50.6555 -50.6331 -50.6248 -49.0453 -49.0434 -49.0343
    -4.9294  -4.9272   6.4642   6.4770   7.8619   7.9500   8.5157   8.7046
    11.3795  11.5098  11.8929  12.3880  12.6488  13.0078  13.0331  13.0653
    14.1447  14.1484  20.8437  20.9584  23.0936

     occupation numbers 
     1.0000   1.0000   1.0000   1.0000   1.0000   1.0000   1.0000   1.0000
     1.0000   1.0000   1.0000   1.0000   1.0000   1.0000   1.0000   1.0000
     1.0000   1.0000   1.0000   1.0000   1.0000   0.9912   0.9875   0.9809
     0.0002   0.0002   0.0000   0.0000   0.0000

          k =-0.2500-0.2500-0.2500 (  1086 PWs)   bands (ev):

   -89.8224 -88.1618 -50.6586 -50.6150 -50.6150 -49.0488 -49.0234 -49.0234
    -5.7369  -5.7264   7.4710   7.5494   8.6901   8.6901   9.2026   9.2026
    11.3130  11.3130  11.6470  12.4259  12.4259  12.5623  13.0651  13.0651
    14.1896  14.1896  17.7000  17.8112  25.5066

     occupation numbers 
     1.0000   1.0000   1.0000   1.0000   1.0000   1.0000   1.0000   1.0000
     1.0000   1.0000   1.0000   1.0000   1.0000   1.0000   1.0000   1.0000
     1.0000   1.0000   1.0000   1.0000   1.0000   1.0000   0.9810   0.9810
     0.0001   0.0001   0.0000   0.0000   0.0000

     the Fermi energy is    13.4642 ev

!    total energy              =    -750.82915084 Ry
     Harris-Foulkes estimate   =    -750.82915084 Ry
     estimated scf accuracy    <          9.3E-13 Ry
     smearing contrib. (-TS)   =      -0.00353033 Ry
     internal energy E=F+TS    =    -750.82562052 Ry

     The total energy is F=E-TS. E is the sum of the following terms:
     one-electron contribution =    -437.98830755 Ry
     hartree contribution      =     247.19136388 Ry
     xc contribution           =     -84.38362015 Ry
     ewald contribution        =    -475.64505670 Ry
 
     Band energy sum           =     -50.23100563 Ry

     total magnetization       =     0.00 Bohr mag/cell
     absolute magnetization    =     2.75 Bohr mag/cell

     convergence has been achieved in  21 iterations

     evp_work_count     :       6782
     num_loc_op_applied :      38684

     Forces acting on atoms (cartesian axes, Ry/au):

     atom    1 type  1   force =     0.00000000    0.00000000    0.00000000
     atom    2 type  2   force =     0.00000000    0.00000000   -0.00000000
     atom    3 type  3   force =     0.00000014    0.00000014    0.00000014
     atom    4 type  3   force =    -0.00000014   -0.00000014   -0.00000014
     The non-local contrib.  to forces
     atom    1 type  1   force =    -0.00000000    0.00000000    0.00000000
     atom    2 type  2   force =     0.00000000   -0.00000000    0.00000000
     atom    3 type  3   force =    -0.00000006   -0.00000006   -0.00000006
     atom    4 type  3   force =     0.00000006    0.00000006    0.00000006
     The ionic contribution  to forces
     atom    1 type  1   force =    -0.00000000   -0.00000000   -0.00000000
     atom    2 type  2   force =     0.00000000    0.00000000    0.00000000
     atom    3 type  3   force =    -0.00000000   -0.00000000   -0.00000000
     atom    4 type  3   force =     0.00000000    0.00000000    0.00000000
     The local contribution  to forces
     atom    1 type  1   force =     0.00000000    0.00000000    0.00000000
     atom    2 type  2   force =     0.00000000    0.00000000    0.00000000
     atom    3 type  3   force =     0.00000021    0.00000021    0.00000021
     atom    4 type  3   force =    -0.00000021   -0.00000021   -0.00000021
     The core correction contribution to forces
     atom    1 type  1   force =     0.00000000    0.00000000    0.00000000
     atom    2 type  2   force =     0.00000000    0.00000000    0.00000000
     atom    3 type  3   force =     0.00000000    0.00000000    0.00000000
     atom    4 type  3   force =    -0.00000000   -0.00000000   -0.00000000
     The Hubbard contrib.    to forces
     atom    1 type  1   force =     0.00000000    0.00000000    0.00000000
     atom    2 type  2   force =     0.00000000    0.00000000    0.00000000
     atom    3 type  3   force =     0.00000000    0.00000000    0.00000000
     atom    4 type  3   force =     0.00000000    0.00000000    0.00000000
     The SCF correction term to forces
     atom    1 type  1   force =     0.00000000   -0.00000000   -0.00000000
     atom    2 type  2   force =     0.00000000    0.00000000    0.00000000
     atom    3 type  3   force =    -0.00000001   -0.00000001   -0.00000001
     atom    4 type  3   force =     0.00000001    0.00000001    0.00000001

     Total force =     0.000000     Total SCF correction =     0.000000


     Computing stress (Cartesian axis) and pressure

          total   stress  (Ry/bohr**3)                   (kbar)     P=     -222.85
  -0.00151489  -0.00003197  -0.00003197         -222.85       -4.70       -4.70
  -0.00003197  -0.00151489  -0.00003197           -4.70     -222.85       -4.70
  -0.00003197  -0.00003197  -0.00151489           -4.70       -4.70     -222.85

     kinetic stress (kbar)  47824.01    -12.12    -12.12
                              -12.12  47824.01    -12.12
                              -12.12    -12.12  47824.01

     local   stress (kbar)  -5399.73     27.35     27.35
                               27.35  -5399.73     27.35
                               27.35     27.35  -5399.73

     nonloc. stress (kbar)  17845.02    -10.32    -10.32
                              -10.32  17845.02    -10.32
                              -10.32    -10.32  17845.02

     hartree stress (kbar)  48612.74     -9.73     -9.73
                               -9.73  48612.74     -9.73
                               -9.73     -9.73  48612.74

     exc-cor stress (kbar) -13122.24      0.00      0.00
                                0.00 -13122.24      0.00
                                0.00      0.00 -13122.24

     corecor stress (kbar)  -2442.12      0.12      0.12
                                0.12  -2442.12      0.12
                                0.12      0.12  -2442.12

     ewald   stress (kbar) -93540.53     -0.00      0.00
                               -0.00 -93540.53      0.00
                                0.00      0.00 -93540.53

     hubbard stress (kbar)      0.00      0.00      0.00
                                0.00      0.00      0.00
                                0.00      0.00      0.00

     DFT-D   stress (kbar)      0.00      0.00      0.00
                                0.00      0.00      0.00
                                0.00      0.00      0.00

     XDM     stress (kbar)      0.00      0.00      0.00
                                0.00      0.00      0.00
                                0.00      0.00      0.00

     dft-nl  stress (kbar)      0.00      0.00      0.00
                                0.00      0.00      0.00
                                0.00      0.00      0.00

     TS-vdW  stress (kbar)      0.00      0.00      0.00
                                0.00      0.00      0.00
                                0.00      0.00      0.00



     Writing output data file ./nio.save/

     init_run     :      4.00s CPU      3.27s WALL (       1 calls)
     electrons    :    141.17s CPU     95.63s WALL (       1 calls)
     forces       :      1.78s CPU      0.76s WALL (       1 calls)
     stress       :      7.66s CPU      2.44s WALL (       1 calls)

     Called by init_run:
     wfcinit      :      1.53s CPU      1.34s WALL (       1 calls)
     wfcinit:atom :      0.01s CPU      0.01s WALL (      26 calls)
     wfcinit:wfcr :      1.47s CPU      1.29s WALL (      26 calls)
     potinit      :      0.21s CPU      0.10s WALL (       1 calls)
     hinit0       :      1.37s CPU      1.38s WALL (       1 calls)

     Called by electrons:
     c_bands      :     68.52s CPU     58.71s WALL (      21 calls)
     sum_band     :     50.25s CPU     25.34s WALL (      21 calls)
     v_of_rho     :      2.90s CPU      1.01s WALL (      22 calls)
     v_h          :      0.26s CPU      0.28s WALL (      22 calls)
     v_xc         :      2.89s CPU      0.79s WALL (      24 calls)
     newd         :     18.99s CPU      9.30s WALL (      22 calls)
     mix_rho      :      0.85s CPU      1.02s WALL (      21 calls)

     Called by c_bands:
     init_us_2    :      0.61s CPU      0.22s WALL (    1170 calls)
     cegterg      :     67.50s CPU     58.34s WALL (     546 calls)

     Called by sum_band:
     sum_band:wei :      0.01s CPU      0.01s WALL (      21 calls)
     sum_band:loo :     13.07s CPU     11.74s WALL (      21 calls)
     sum_band:buf :      0.03s CPU      0.03s WALL (     546 calls)
     sum_band:ini :      0.28s CPU      0.09s WALL (     546 calls)
     sum_band:cal :      0.72s CPU      0.37s WALL (     546 calls)
     sum_band:bec :      0.07s CPU      0.10s WALL (     546 calls)
     addusdens    :     36.59s CPU     12.99s WALL (      21 calls)
     addusd:skk   :      0.05s CPU      0.02s WALL (      63 calls)
     addusd:dgemm :      9.10s CPU      5.49s WALL (     126 calls)
     addusd:qvan2 :     26.99s CPU      6.25s WALL (     126 calls)

     Called by *egterg:
     cdiaghg      :      1.48s CPU      1.49s WALL (    1711 calls)
     cegterg:over :      1.73s CPU      0.91s WALL (    1165 calls)
     cegterg:upda :      1.07s CPU      0.37s WALL (    1165 calls)
     cegterg:last :      2.61s CPU      0.82s WALL (    1086 calls)
     h_psi        :     59.19s CPU     54.45s WALL (    1737 calls)
     s_psi        :      1.79s CPU      0.53s WALL (    1737 calls)
     g_psi        :      0.14s CPU      0.06s WALL (    1165 calls)

     Called by h_psi:
     h_psi:calbec :      1.78s CPU      0.91s WALL (    1737 calls)
     vloc_psi     :     55.45s CPU     52.87s WALL (    1737 calls)
     add_vuspsi   :      1.83s CPU      0.57s WALL (    1737 calls)

     General routines
     calbec       :      2.68s CPU      1.38s WALL (    2413 calls)
     fft          :      2.33s CPU      2.36s WALL (     246 calls)
     ffts         :      0.08s CPU      0.09s WALL (      86 calls)
     fftw         :     55.85s CPU     56.02s WALL (   93202 calls)
     interpolate  :      0.53s CPU      0.56s WALL (      44 calls)

     Parallel routines

     PWSCF        :   2m34.88s CPU   1m42.42s WALL


   This run was terminated on:  11:23:38  17Feb2021            

=------------------------------------------------------------------------------=
   JOB DONE.
=------------------------------------------------------------------------------=
Note: The following floating-point exceptions are signalling: IEEE_UNDERFLOW_FLAG IEEE_DENORMAL
