
     Program PWSCF v.6.7GPU starts on 19Mar2021 at  9:34:12 

     This program is part of the open-source Quantum ESPRESSO suite
     for quantum simulation of materials; please cite
         "P. Giannozzi et al., J. Phys.:Condens. Matter 21 395502 (2009);
         "P. Giannozzi et al., J. Phys.:Condens. Matter 29 465901 (2017);
         "P. Giannozzi et al., J. Chem. Phys. 152 154105 (2020);
          URL http://www.quantum-espresso.org", 
     in publications or presentations arising from this work. More details at
     http://www.quantum-espresso.org/quote

     Parallel version (MPI & OpenMP), running on     192 processor cores
     Number of MPI processes:                16
     Threads/MPI process:                    12

     MPI processes distributed on    16 nodes
     K-points division:     npool     =       2
     R & G space division:  proc/nbgrp/npool/nimage =       8
     Reading input from pw.in

     Current dimensions of program PWSCF are:
     Max number of different atomic species (ntypx) = 10
     Max number of k-points (npk) =  40000
     Max angular momentum in pseudopotentials (lmaxx) =  3

     Subspace diagonalization in iterative solution of the eigenvalue problem:
     one sub-group per band group will be used
     scalapack distributed-memory algorithm (size of sub-group:  2*  2 procs)

 
     Parallelization info
     --------------------
     sticks:   dense  smooth     PW     G-vecs:    dense   smooth      PW
     Min        1479     739    192               269795    95411   12592
     Max        1480     740    193               269800    95416   12595
     Sum       11837    5915   1537              2158381   763307  100747
 
     Using Slab Decomposition
 

     Title: 
      DEISA pw benchmark                                                        


     bravais-lattice index     =            8
     lattice parameter (alat)  =      38.7583  a.u.
     unit-cell volume          =   45191.4962 (a.u.)^3
     number of atoms/cell      =          112
     number of atomic types    =            1
     number of electrons       =      1232.00
     number of Kohn-Sham states=          800
     kinetic-energy cutoff     =      25.0000  Ry
     charge density cutoff     =     200.0000  Ry
     scf convergence threshold =      1.0E-10
     mixing beta               =       0.5000
     number of iterations used =            8  plain     mixing
     Exchange-correlation=  SLA  PW   PBE  PBE
                           (   1   4   3   4   0   0   0)

     celldm(1)=  38.758300  celldm(2)=   0.494393  celldm(3)=   1.569966
     celldm(4)=   0.000000  celldm(5)=   0.000000  celldm(6)=   0.000000

     crystal axes: (cart. coord. in units of alat)
               a(1) = (   1.000000   0.000000   0.000000 )  
               a(2) = (   0.000000   0.494393   0.000000 )  
               a(3) = (   0.000000   0.000000   1.569966 )  

     reciprocal axes: (cart. coord. in units 2 pi/alat)
               b(1) = (  1.000000  0.000000  0.000000 )  
               b(2) = (  0.000000  2.022682  0.000000 )  
               b(3) = (  0.000000  0.000000  0.636956 )  


     PseudoPot. # 1 for Au read from file:
     ./Au.pbe-nd-van.UPF
     MD5 check sum: deb5c07af10777505a79e28f5b4b4115
     Pseudo is Ultrasoft + core correction, Zval = 11.0
     Generated by new atomic code, or converted to UPF format
     Using radial grid of  985 points,  3 beta functions with: 
                l(1) =   1
                l(2) =   2
                l(3) =   2
     Q(r) pseudized with  8 coefficients,  rinner =    1.100   1.100   1.100
                                                       1.100   1.100

     atomic species   valence    mass     pseudopotential
        AU            11.00   196.96000     Au( 1.00)

     No symmetry found


                                    s                        frac. trans.

      isym =  1     identity                                     

 cryst.   s( 1) = (     1          0          0      )
                  (     0          1          0      )
                  (     0          0          1      )

 cart.    s( 1) = (  1.0000000  0.0000000  0.0000000 )
                  (  0.0000000  1.0000000  0.0000000 )
                  (  0.0000000  0.0000000  1.0000000 )


     point group C_1 (1)    
     there are  1 classes
     the character table:

       E    
A      1.00

     the symmetry operations in each class and the name of the first element:

     E        1
          identity                                               

   Cartesian axes

     site n.     atom                  positions (alat units)
         1           AU  tau(   1) = (   1.4278394   1.9784974   0.3497317  )
         2           AU  tau(   2) = (   1.4278394   1.7313986   0.3497317  )
         3           AU  tau(   3) = (   1.5706478   1.9784974   0.3497317  )
         4           AU  tau(   4) = (   1.5706478   1.7313986   0.3497317  )
         5           AU  tau(   5) = (   1.7134072   1.9784974   0.3497317  )
         6           AU  tau(   6) = (   1.7134072   1.7313986   0.3497317  )
         7           AU  tau(   7) = (   1.8562156   1.9784974   0.3497317  )
         8           AU  tau(   8) = (   1.8562156   1.7313986   0.3497317  )
         9           AU  tau(   9) = (   1.9989753   1.9784974   0.3497317  )
        10           AU  tau(  10) = (   1.9989753   1.7313986   0.3497317  )
        11           AU  tau(  11) = (   2.1417836   1.9784974   0.3497317  )
        12           AU  tau(  12) = (   2.1417836   1.7313986   0.3497317  )
        13           AU  tau(  13) = (   2.2845431   1.9784974   0.3497317  )
        14           AU  tau(  14) = (   2.2845431   1.7313986   0.3497317  )
        15           AU  tau(  15) = (   1.4278394   2.0609450   0.2331545  )
        16           AU  tau(  16) = (   1.4278394   1.8138461   0.2331545  )
        17           AU  tau(  17) = (   1.5706478   2.0609450   0.2331545  )
        18           AU  tau(  18) = (   1.5706478   1.8138461   0.2331545  )
        19           AU  tau(  19) = (   1.7134072   2.0609450   0.2331545  )
        20           AU  tau(  20) = (   1.7134072   1.8138461   0.2331545  )
        21           AU  tau(  21) = (   1.8562156   2.0609450   0.2331545  )
        22           AU  tau(  22) = (   1.8562156   1.8138461   0.2331545  )
        23           AU  tau(  23) = (   1.9989753   2.0609450   0.2331545  )
        24           AU  tau(  24) = (   1.9989753   1.8138461   0.2331545  )
        25           AU  tau(  25) = (   2.1417836   2.0609450   0.2331545  )
        26           AU  tau(  26) = (   2.1417836   1.8138461   0.2331545  )
        27           AU  tau(  27) = (   2.2845431   2.0609450   0.2331545  )
        28           AU  tau(  28) = (   2.2845431   1.8138461   0.2331545  )
        29           AU  tau(  29) = (   1.4992193   2.1021445   0.3497317  )
        30           AU  tau(  30) = (   1.4992193   1.8550455   0.3497317  )
        31           AU  tau(  31) = (   1.6420276   2.1021445   0.3497317  )
        32           AU  tau(  32) = (   1.6420276   1.8550455   0.3497317  )
        33           AU  tau(  33) = (   1.7847871   2.1021445   0.3497317  )
        34           AU  tau(  34) = (   1.7847871   1.8550455   0.3497317  )
        35           AU  tau(  35) = (   1.9275954   2.1021445   0.3497317  )
        36           AU  tau(  36) = (   1.9275954   1.8550455   0.3497317  )
        37           AU  tau(  37) = (   2.0704038   2.1021445   0.3497317  )
        38           AU  tau(  38) = (   2.0704038   1.8550455   0.3497317  )
        39           AU  tau(  39) = (   2.2131632   2.1021445   0.3497317  )
        40           AU  tau(  40) = (   2.2131632   1.8550455   0.3497317  )
        41           AU  tau(  41) = (   2.3559716   2.1021445   0.3497317  )
        42           AU  tau(  42) = (   2.3559716   1.8550455   0.3497317  )
        43           AU  tau(  43) = (   1.4992193   1.6901992   0.2331545  )
        44           AU  tau(  44) = (   1.4992193   1.9374930   0.2331545  )
        45           AU  tau(  45) = (   1.6420276   1.6901992   0.2331545  )
        46           AU  tau(  46) = (   1.6420276   1.9374930   0.2331545  )
        47           AU  tau(  47) = (   1.7847871   1.6901992   0.2331545  )
        48           AU  tau(  48) = (   1.7847871   1.9374930   0.2331545  )
        49           AU  tau(  49) = (   1.9275954   1.6901992   0.2331545  )
        50           AU  tau(  50) = (   1.9275954   1.9374930   0.2331545  )
        51           AU  tau(  51) = (   2.0704038   1.6901992   0.2331545  )
        52           AU  tau(  52) = (   2.0704038   1.9374930   0.2331545  )
        53           AU  tau(  53) = (   2.2131632   1.6901992   0.2331545  )
        54           AU  tau(  54) = (   2.2131632   1.9374930   0.2331545  )
        55           AU  tau(  55) = (   2.3559716   1.6901992   0.2331545  )
        56           AU  tau(  56) = (   2.3559716   1.9374930   0.2331545  )
        57           AU  tau(  57) = (   1.4278394   1.9784974   0.0000000  )
        58           AU  tau(  58) = (   1.4278394   1.7313986   0.0000000  )
        59           AU  tau(  59) = (   1.5706478   1.9784974   0.0000000  )
        60           AU  tau(  60) = (   1.5706478   1.7313986   0.0000000  )
        61           AU  tau(  61) = (   1.7134072   1.9784974   0.0000000  )
        62           AU  tau(  62) = (   1.7134072   1.7313986   0.0000000  )
        63           AU  tau(  63) = (   1.8562156   1.9784974   0.0000000  )
        64           AU  tau(  64) = (   1.8562156   1.7313986   0.0000000  )
        65           AU  tau(  65) = (   1.9989753   1.9784974   0.0000000  )
        66           AU  tau(  66) = (   1.9989753   1.7313986   0.0000000  )
        67           AU  tau(  67) = (   2.1417836   1.9784974   0.0000000  )
        68           AU  tau(  68) = (   2.1417836   1.7313986   0.0000000  )
        69           AU  tau(  69) = (   2.2845431   1.9784974   0.0000000  )
        70           AU  tau(  70) = (   2.2845431   1.7313986   0.0000000  )
        71           AU  tau(  71) = (   1.4992193   2.0196968   0.1165772  )
        72           AU  tau(  72) = (   1.4992193   1.7725979   0.1165772  )
        73           AU  tau(  73) = (   1.6420276   2.0196968   0.1165772  )
        74           AU  tau(  74) = (   1.6420276   1.7725979   0.1165772  )
        75           AU  tau(  75) = (   1.7847871   2.0196968   0.1165772  )
        76           AU  tau(  76) = (   1.7847871   1.7725979   0.1165772  )
        77           AU  tau(  77) = (   1.9275954   2.0196968   0.1165772  )
        78           AU  tau(  78) = (   1.9275954   1.7725979   0.1165772  )
        79           AU  tau(  79) = (   2.0704038   2.0196968   0.1165772  )
        80           AU  tau(  80) = (   2.0704038   1.7725979   0.1165772  )
        81           AU  tau(  81) = (   2.2131632   2.0196968   0.1165772  )
        82           AU  tau(  82) = (   2.2131632   1.7725979   0.1165772  )
        83           AU  tau(  83) = (   2.3559716   2.0196968   0.1165772  )
        84           AU  tau(  84) = (   2.3559716   1.7725979   0.1165772  )
        85           AU  tau(  85) = (   1.4278394   2.1433437   0.1165772  )
        86           AU  tau(  86) = (   1.4278394   1.8962937   0.1165772  )
        87           AU  tau(  87) = (   1.5706478   2.1433437   0.1165772  )
        88           AU  tau(  88) = (   1.5706478   1.8962937   0.1165772  )
        89           AU  tau(  89) = (   1.7134072   2.1433437   0.1165772  )
        90           AU  tau(  90) = (   1.7134072   1.8962937   0.1165772  )
        91           AU  tau(  91) = (   1.8562156   2.1433437   0.1165772  )
        92           AU  tau(  92) = (   1.8562156   1.8962937   0.1165772  )
        93           AU  tau(  93) = (   1.9989753   2.1433437   0.1165772  )
        94           AU  tau(  94) = (   1.9989753   1.8962937   0.1165772  )
        95           AU  tau(  95) = (   2.1417836   2.1433437   0.1165772  )
        96           AU  tau(  96) = (   2.1417836   1.8962937   0.1165772  )
        97           AU  tau(  97) = (   2.2845431   2.1433437   0.1165772  )
        98           AU  tau(  98) = (   2.2845431   1.8962937   0.1165772  )
        99           AU  tau(  99) = (   1.4992193   2.1021445   0.0000000  )
       100           AU  tau( 100) = (   1.4992193   1.8550455   0.0000000  )
       101           AU  tau( 101) = (   1.6420276   2.1021445   0.0000000  )
       102           AU  tau( 102) = (   1.6420276   1.8550455   0.0000000  )
       103           AU  tau( 103) = (   1.7847871   2.1021445   0.0000000  )
       104           AU  tau( 104) = (   1.7847871   1.8550455   0.0000000  )
       105           AU  tau( 105) = (   1.9275954   2.1021445   0.0000000  )
       106           AU  tau( 106) = (   1.9275954   1.8550455   0.0000000  )
       107           AU  tau( 107) = (   2.0704038   2.1021445   0.0000000  )
       108           AU  tau( 108) = (   2.0704038   1.8550455   0.0000000  )
       109           AU  tau( 109) = (   2.2131632   2.1021445   0.0000000  )
       110           AU  tau( 110) = (   2.2131632   1.8550455   0.0000000  )
       111           AU  tau( 111) = (   2.3559716   2.1021445   0.0000000  )
       112           AU  tau( 112) = (   2.3559716   1.8550455   0.0000000  )

   Crystallographic axes

     site n.     atom                  positions (cryst. coord.)
         1           AU  tau(   1) = (  1.4278394  4.0018717  0.2227639  )
         2           AU  tau(   2) = (  1.4278394  3.5020695  0.2227639  )
         3           AU  tau(   3) = (  1.5706478  4.0018717  0.2227639  )
         4           AU  tau(   4) = (  1.5706478  3.5020695  0.2227639  )
         5           AU  tau(   5) = (  1.7134072  4.0018717  0.2227639  )
         6           AU  tau(   6) = (  1.7134072  3.5020695  0.2227639  )
         7           AU  tau(   7) = (  1.8562156  4.0018717  0.2227639  )
         8           AU  tau(   8) = (  1.8562156  3.5020695  0.2227639  )
         9           AU  tau(   9) = (  1.9989753  4.0018717  0.2227639  )
        10           AU  tau(  10) = (  1.9989753  3.5020695  0.2227639  )
        11           AU  tau(  11) = (  2.1417836  4.0018717  0.2227639  )
        12           AU  tau(  12) = (  2.1417836  3.5020695  0.2227639  )
        13           AU  tau(  13) = (  2.2845431  4.0018717  0.2227639  )
        14           AU  tau(  14) = (  2.2845431  3.5020695  0.2227639  )
        15           AU  tau(  15) = (  1.4278394  4.1686370  0.1485092  )
        16           AU  tau(  16) = (  1.4278394  3.6688345  0.1485092  )
        17           AU  tau(  17) = (  1.5706478  4.1686370  0.1485092  )
        18           AU  tau(  18) = (  1.5706478  3.6688345  0.1485092  )
        19           AU  tau(  19) = (  1.7134072  4.1686370  0.1485092  )
        20           AU  tau(  20) = (  1.7134072  3.6688345  0.1485092  )
        21           AU  tau(  21) = (  1.8562156  4.1686370  0.1485092  )
        22           AU  tau(  22) = (  1.8562156  3.6688345  0.1485092  )
        23           AU  tau(  23) = (  1.9989753  4.1686370  0.1485092  )
        24           AU  tau(  24) = (  1.9989753  3.6688345  0.1485092  )
        25           AU  tau(  25) = (  2.1417836  4.1686370  0.1485092  )
        26           AU  tau(  26) = (  2.1417836  3.6688345  0.1485092  )
        27           AU  tau(  27) = (  2.2845431  4.1686370  0.1485092  )
        28           AU  tau(  28) = (  2.2845431  3.6688345  0.1485092  )
        29           AU  tau(  29) = (  1.4992193  4.2519705  0.2227639  )
        30           AU  tau(  30) = (  1.4992193  3.7521679  0.2227639  )
        31           AU  tau(  31) = (  1.6420276  4.2519705  0.2227639  )
        32           AU  tau(  32) = (  1.6420276  3.7521679  0.2227639  )
        33           AU  tau(  33) = (  1.7847871  4.2519705  0.2227639  )
        34           AU  tau(  34) = (  1.7847871  3.7521679  0.2227639  )
        35           AU  tau(  35) = (  1.9275954  4.2519705  0.2227639  )
        36           AU  tau(  36) = (  1.9275954  3.7521679  0.2227639  )
        37           AU  tau(  37) = (  2.0704038  4.2519705  0.2227639  )
        38           AU  tau(  38) = (  2.0704038  3.7521679  0.2227639  )
        39           AU  tau(  39) = (  2.2131632  4.2519705  0.2227639  )
        40           AU  tau(  40) = (  2.2131632  3.7521679  0.2227639  )
        41           AU  tau(  41) = (  2.3559716  4.2519705  0.2227639  )
        42           AU  tau(  42) = (  2.3559716  3.7521679  0.2227639  )
        43           AU  tau(  43) = (  1.4992193  3.4187360  0.1485092  )
        44           AU  tau(  44) = (  1.4992193  3.9189329  0.1485092  )
        45           AU  tau(  45) = (  1.6420276  3.4187360  0.1485092  )
        46           AU  tau(  46) = (  1.6420276  3.9189329  0.1485092  )
        47           AU  tau(  47) = (  1.7847871  3.4187360  0.1485092  )
        48           AU  tau(  48) = (  1.7847871  3.9189329  0.1485092  )
        49           AU  tau(  49) = (  1.9275954  3.4187360  0.1485092  )
        50           AU  tau(  50) = (  1.9275954  3.9189329  0.1485092  )
        51           AU  tau(  51) = (  2.0704038  3.4187360  0.1485092  )
        52           AU  tau(  52) = (  2.0704038  3.9189329  0.1485092  )
        53           AU  tau(  53) = (  2.2131632  3.4187360  0.1485092  )
        54           AU  tau(  54) = (  2.2131632  3.9189329  0.1485092  )
        55           AU  tau(  55) = (  2.3559716  3.4187360  0.1485092  )
        56           AU  tau(  56) = (  2.3559716  3.9189329  0.1485092  )
        57           AU  tau(  57) = (  1.4278394  4.0018717  0.0000000  )
        58           AU  tau(  58) = (  1.4278394  3.5020695  0.0000000  )
        59           AU  tau(  59) = (  1.5706478  4.0018717  0.0000000  )
        60           AU  tau(  60) = (  1.5706478  3.5020695  0.0000000  )
        61           AU  tau(  61) = (  1.7134072  4.0018717  0.0000000  )
        62           AU  tau(  62) = (  1.7134072  3.5020695  0.0000000  )
        63           AU  tau(  63) = (  1.8562156  4.0018717  0.0000000  )
        64           AU  tau(  64) = (  1.8562156  3.5020695  0.0000000  )
        65           AU  tau(  65) = (  1.9989753  4.0018717  0.0000000  )
        66           AU  tau(  66) = (  1.9989753  3.5020695  0.0000000  )
        67           AU  tau(  67) = (  2.1417836  4.0018717  0.0000000  )
        68           AU  tau(  68) = (  2.1417836  3.5020695  0.0000000  )
        69           AU  tau(  69) = (  2.2845431  4.0018717  0.0000000  )
        70           AU  tau(  70) = (  2.2845431  3.5020695  0.0000000  )
        71           AU  tau(  71) = (  1.4992193  4.0852051  0.0742546  )
        72           AU  tau(  72) = (  1.4992193  3.5854025  0.0742546  )
        73           AU  tau(  73) = (  1.6420276  4.0852051  0.0742546  )
        74           AU  tau(  74) = (  1.6420276  3.5854025  0.0742546  )
        75           AU  tau(  75) = (  1.7847871  4.0852051  0.0742546  )
        76           AU  tau(  76) = (  1.7847871  3.5854025  0.0742546  )
        77           AU  tau(  77) = (  1.9275954  4.0852051  0.0742546  )
        78           AU  tau(  78) = (  1.9275954  3.5854025  0.0742546  )
        79           AU  tau(  79) = (  2.0704038  4.0852051  0.0742546  )
        80           AU  tau(  80) = (  2.0704038  3.5854025  0.0742546  )
        81           AU  tau(  81) = (  2.2131632  4.0852051  0.0742546  )
        82           AU  tau(  82) = (  2.2131632  3.5854025  0.0742546  )
        83           AU  tau(  83) = (  2.3559716  4.0852051  0.0742546  )
        84           AU  tau(  84) = (  2.3559716  3.5854025  0.0742546  )
        85           AU  tau(  85) = (  1.4278394  4.3353035  0.0742546  )
        86           AU  tau(  86) = (  1.4278394  3.8355999  0.0742546  )
        87           AU  tau(  87) = (  1.5706478  4.3353035  0.0742546  )
        88           AU  tau(  88) = (  1.5706478  3.8355999  0.0742546  )
        89           AU  tau(  89) = (  1.7134072  4.3353035  0.0742546  )
        90           AU  tau(  90) = (  1.7134072  3.8355999  0.0742546  )
        91           AU  tau(  91) = (  1.8562156  4.3353035  0.0742546  )
        92           AU  tau(  92) = (  1.8562156  3.8355999  0.0742546  )
        93           AU  tau(  93) = (  1.9989753  4.3353035  0.0742546  )
        94           AU  tau(  94) = (  1.9989753  3.8355999  0.0742546  )
        95           AU  tau(  95) = (  2.1417836  4.3353035  0.0742546  )
        96           AU  tau(  96) = (  2.1417836  3.8355999  0.0742546  )
        97           AU  tau(  97) = (  2.2845431  4.3353035  0.0742546  )
        98           AU  tau(  98) = (  2.2845431  3.8355999  0.0742546  )
        99           AU  tau(  99) = (  1.4992193  4.2519705  0.0000000  )
       100           AU  tau( 100) = (  1.4992193  3.7521679  0.0000000  )
       101           AU  tau( 101) = (  1.6420276  4.2519705  0.0000000  )
       102           AU  tau( 102) = (  1.6420276  3.7521679  0.0000000  )
       103           AU  tau( 103) = (  1.7847871  4.2519705  0.0000000  )
       104           AU  tau( 104) = (  1.7847871  3.7521679  0.0000000  )
       105           AU  tau( 105) = (  1.9275954  4.2519705  0.0000000  )
       106           AU  tau( 106) = (  1.9275954  3.7521679  0.0000000  )
       107           AU  tau( 107) = (  2.0704038  4.2519705  0.0000000  )
       108           AU  tau( 108) = (  2.0704038  3.7521679  0.0000000  )
       109           AU  tau( 109) = (  2.2131632  4.2519705  0.0000000  )
       110           AU  tau( 110) = (  2.2131632  3.7521679  0.0000000  )
       111           AU  tau( 111) = (  2.3559716  4.2519705  0.0000000  )
       112           AU  tau( 112) = (  2.3559716  3.7521679  0.0000000  )

     number of k points=     2  Marzari-Vanderbilt smearing, width (Ry)=  0.0500
                       cart. coord. in units 2pi/alat
        k(    1) = (   0.2500000   0.5056706   0.0000000), wk =   1.0000000
        k(    2) = (  -0.2500000   0.5056706   0.0000000), wk =   1.0000000

                       cryst. coord.
        k(    1) = (   0.2500000   0.2500000   0.0000000), wk =   1.0000000
        k(    2) = (  -0.2500000   0.2500000   0.0000000), wk =   1.0000000

     Dense  grid:  2158381 G-vectors     FFT dimensions: ( 180,  90, 288)

     Smooth grid:   763307 G-vectors     FFT dimensions: ( 125,  64, 200)

     Dynamical RAM for                 wfc:     145.56 MB

     Dynamical RAM for     wfc (w. buffer):     145.56 MB

     Dynamical RAM for           str. fact:       4.12 MB

     Dynamical RAM for           local pot:       0.00 MB

     Dynamical RAM for          nlocal pot:     264.91 MB

     Dynamical RAM for                qrad:       0.32 MB

     Dynamical RAM for          rho,v,vnew:      25.70 MB

     Dynamical RAM for               rhoin:       8.57 MB

     Dynamical RAM for            rho*nmix:      65.87 MB

     Dynamical RAM for           G-vectors:      16.17 MB

     Dynamical RAM for          h,s,v(r/c):      29.30 MB

     Dynamical RAM for          <psi|beta>:      17.77 MB

     Dynamical RAM for                 psi:     291.11 MB

     Dynamical RAM for                hpsi:     291.11 MB

     Dynamical RAM for                spsi:     291.11 MB

     Dynamical RAM for      wfcinit/wfcrot:     390.07 MB

     Dynamical RAM for           addusdens:     450.79 MB

     Dynamical RAM for          addusforce:     907.99 MB

     Dynamical RAM for         addusstress:     250.10 MB

     Estimated static dynamical RAM per process >     495.82 MB

     Estimated max dynamical RAM per process >       1.45 GB

     Estimated total dynamical RAM >      22.64 GB

     Initial potential from superposition of free atoms

     starting charge 1230.69946, renormalised to 1232.00000

     negative rho (up, down):  3.043E+00 0.000E+00
     Starting wfcs are 1008 randomized atomic wfcs

     total cpu time spent up to now is        8.2 secs

     per-process dynamical memory:    25.3 Mb

     Self-consistent Calculation

     iteration #  1     ecut=    25.00 Ry     beta= 0.50
     Davidson diagonalization with overlap
     ethr =  1.00E-02,  avg # of iterations =  4.0

     Threshold (ethr) on eigenvalues was too large:
     Diagonalizing with lowered threshold

     Davidson diagonalization with overlap
     ethr =  4.37E-04,  avg # of iterations = 19.0

     negative rho (up, down):  3.001E+00 0.000E+00

     total cpu time spent up to now is       57.5 secs

     total energy              =  -11424.36466636 Ry
     estimated scf accuracy    <       6.31564697 Ry

     iteration #  2     ecut=    25.00 Ry     beta= 0.50
     Davidson diagonalization with overlap
     ethr =  5.13E-04,  avg # of iterations = 14.0

     negative rho (up, down):  3.016E+00 0.000E+00

     total cpu time spent up to now is       99.3 secs

     total energy              =  -11419.58510740 Ry
     estimated scf accuracy    <      72.11299330 Ry

     iteration #  3     ecut=    25.00 Ry     beta= 0.50
     Davidson diagonalization with overlap
     ethr =  5.13E-04,  avg # of iterations =  9.5

     negative rho (up, down):  3.042E+00 0.000E+00

     total cpu time spent up to now is      128.3 secs

     total energy              =  -11426.84622438 Ry
     estimated scf accuracy    <       2.12627847 Ry

     iteration #  4     ecut=    25.00 Ry     beta= 0.50
     Davidson diagonalization with overlap
     ethr =  1.73E-04,  avg # of iterations =  5.5

     negative rho (up, down):  3.052E+00 0.000E+00

     total cpu time spent up to now is      145.1 secs

     total energy              =  -11426.91877082 Ry
     estimated scf accuracy    <       1.01417473 Ry

     iteration #  5     ecut=    25.00 Ry     beta= 0.50
     Davidson diagonalization with overlap
     c_bands:  5 eigenvalues not converged
     ethr =  8.23E-05,  avg # of iterations = 14.0

     negative rho (up, down):  3.064E+00 0.000E+00

     total cpu time spent up to now is      173.6 secs

     total energy              =  -11426.94077638 Ry
     estimated scf accuracy    <       3.53730724 Ry

     iteration #  6     ecut=    25.00 Ry     beta= 0.50
     Davidson diagonalization with overlap
     ethr =  8.23E-05,  avg # of iterations = 14.5

     negative rho (up, down):  3.076E+00 0.000E+00

     total cpu time spent up to now is      197.2 secs

     total energy              =  -11427.08986547 Ry
     estimated scf accuracy    <       0.01469293 Ry

     iteration #  7     ecut=    25.00 Ry     beta= 0.50
     Davidson diagonalization with overlap
     c_bands:  3 eigenvalues not converged
     ethr =  1.19E-06,  avg # of iterations = 20.0

     negative rho (up, down):  3.081E+00 0.000E+00

     total cpu time spent up to now is      238.0 secs

     total energy              =  -11427.08800944 Ry
     estimated scf accuracy    <       0.06434739 Ry

     iteration #  8     ecut=    25.00 Ry     beta= 0.50
     Davidson diagonalization with overlap
     ethr =  1.19E-06,  avg # of iterations = 16.5

     negative rho (up, down):  3.081E+00 0.000E+00

     total cpu time spent up to now is      270.9 secs

     total energy              =  -11427.09301251 Ry
     estimated scf accuracy    <       0.02168332 Ry

     iteration #  9     ecut=    25.00 Ry     beta= 0.50
     Davidson diagonalization with overlap
     ethr =  1.19E-06,  avg # of iterations =  5.0

     negative rho (up, down):  3.082E+00 0.000E+00

     total cpu time spent up to now is      288.1 secs

     total energy              =  -11427.09382515 Ry
     estimated scf accuracy    <       0.00322024 Ry

     iteration # 10     ecut=    25.00 Ry     beta= 0.50
     Davidson diagonalization with overlap
     ethr =  2.61E-07,  avg # of iterations =  1.5

     negative rho (up, down):  3.083E+00 0.000E+00

     total cpu time spent up to now is      302.1 secs

     total energy              =  -11427.09390186 Ry
     estimated scf accuracy    <       0.00089085 Ry

     iteration # 11     ecut=    25.00 Ry     beta= 0.50
     Davidson diagonalization with overlap
     ethr =  7.23E-08,  avg # of iterations =  2.0

     negative rho (up, down):  3.084E+00 0.000E+00

     total cpu time spent up to now is      316.0 secs

     total energy              =  -11427.09397721 Ry
     estimated scf accuracy    <       0.00017000 Ry

     iteration # 12     ecut=    25.00 Ry     beta= 0.50
     Davidson diagonalization with overlap
     ethr =  1.38E-08,  avg # of iterations =  2.0

     negative rho (up, down):  3.084E+00 0.000E+00

     total cpu time spent up to now is      330.0 secs

     total energy              =  -11427.09396197 Ry
     estimated scf accuracy    <       0.00064636 Ry

     iteration # 13     ecut=    25.00 Ry     beta= 0.50
     Davidson diagonalization with overlap
     ethr =  1.38E-08,  avg # of iterations =  2.0

     negative rho (up, down):  3.084E+00 0.000E+00

     total cpu time spent up to now is      344.3 secs

     total energy              =  -11427.09396537 Ry
     estimated scf accuracy    <       0.00077112 Ry

     iteration # 14     ecut=    25.00 Ry     beta= 0.50
     Davidson diagonalization with overlap
     ethr =  1.38E-08,  avg # of iterations =  1.0

     negative rho (up, down):  3.084E+00 0.000E+00

     total cpu time spent up to now is      357.5 secs

     total energy              =  -11427.09400728 Ry
     estimated scf accuracy    <       0.00004472 Ry

     iteration # 15     ecut=    25.00 Ry     beta= 0.50
     Davidson diagonalization with overlap
     ethr =  3.63E-09,  avg # of iterations =  2.0

     negative rho (up, down):  3.084E+00 0.000E+00

     total cpu time spent up to now is      371.8 secs

     total energy              =  -11427.09399897 Ry
     estimated scf accuracy    <       0.00028632 Ry

     iteration # 16     ecut=    25.00 Ry     beta= 0.50
     Davidson diagonalization with overlap
     ethr =  3.63E-09,  avg # of iterations =  1.0

     negative rho (up, down):  3.085E+00 0.000E+00

     total cpu time spent up to now is      384.7 secs

     total energy              =  -11427.09401271 Ry
     estimated scf accuracy    <       0.00001546 Ry

     iteration # 17     ecut=    25.00 Ry     beta= 0.50
     Davidson diagonalization with overlap
     ethr =  1.26E-09,  avg # of iterations =  1.0

     negative rho (up, down):  3.085E+00 0.000E+00

     total cpu time spent up to now is      397.7 secs

     total energy              =  -11427.09401383 Ry
     estimated scf accuracy    <       0.00000053 Ry

     iteration # 18     ecut=    25.00 Ry     beta= 0.50
     Davidson diagonalization with overlap
     ethr =  4.34E-11,  avg # of iterations =  3.0

     negative rho (up, down):  3.085E+00 0.000E+00

     total cpu time spent up to now is      416.7 secs

     total energy              =  -11427.09401339 Ry
     estimated scf accuracy    <       0.00000909 Ry

     iteration # 19     ecut=    25.00 Ry     beta= 0.50
     Davidson diagonalization with overlap
     ethr =  4.34E-11,  avg # of iterations =  2.0

     negative rho (up, down):  3.085E+00 0.000E+00

     total cpu time spent up to now is      431.6 secs

     total energy              =  -11427.09401371 Ry
     estimated scf accuracy    <       0.00000662 Ry

     iteration # 20     ecut=    25.00 Ry     beta= 0.50
     Davidson diagonalization with overlap
     ethr =  4.34E-11,  avg # of iterations =  2.0

     negative rho (up, down):  3.085E+00 0.000E+00

     total cpu time spent up to now is      446.1 secs

     total energy              =  -11427.09401399 Ry
     estimated scf accuracy    <       0.00000030 Ry

     iteration # 21     ecut=    25.00 Ry     beta= 0.50
     Davidson diagonalization with overlap
     ethr =  2.44E-11,  avg # of iterations =  2.0

     negative rho (up, down):  3.085E+00 0.000E+00

     total cpu time spent up to now is      460.1 secs

     total energy              =  -11427.09401402 Ry
     estimated scf accuracy    <       0.00000018 Ry

     iteration # 22     ecut=    25.00 Ry     beta= 0.50
     Davidson diagonalization with overlap
     ethr =  1.47E-11,  avg # of iterations =  1.5

     negative rho (up, down):  3.085E+00 0.000E+00

     total cpu time spent up to now is      474.1 secs

     total energy              =  -11427.09401402 Ry
     estimated scf accuracy    <       0.00000022 Ry

     iteration # 23     ecut=    25.00 Ry     beta= 0.50
     Davidson diagonalization with overlap
     ethr =  1.47E-11,  avg # of iterations =  1.0

     negative rho (up, down):  3.085E+00 0.000E+00

     total cpu time spent up to now is      486.8 secs

     total energy              =  -11427.09401403 Ry
     estimated scf accuracy    <       0.00000022 Ry

     iteration # 24     ecut=    25.00 Ry     beta= 0.50
     Davidson diagonalization with overlap
     ethr =  1.47E-11,  avg # of iterations =  1.0

     negative rho (up, down):  3.085E+00 0.000E+00

     total cpu time spent up to now is      499.1 secs

     total energy              =  -11427.09401403 Ry
     estimated scf accuracy    <       0.00000015 Ry

     iteration # 25     ecut=    25.00 Ry     beta= 0.50
     Davidson diagonalization with overlap
     ethr =  1.19E-11,  avg # of iterations =  1.0

     negative rho (up, down):  3.085E+00 0.000E+00

     total cpu time spent up to now is      511.7 secs

     total energy              =  -11427.09401404 Ry
     estimated scf accuracy    <       0.00000002 Ry

     iteration # 26     ecut=    25.00 Ry     beta= 0.50
     Davidson diagonalization with overlap
     ethr =  1.32E-12,  avg # of iterations =  2.0

     negative rho (up, down):  3.085E+00 0.000E+00

     total cpu time spent up to now is      525.5 secs

     total energy              =  -11427.09401404 Ry
     estimated scf accuracy    <       0.00000004 Ry

     iteration # 27     ecut=    25.00 Ry     beta= 0.50
     Davidson diagonalization with overlap
     ethr =  1.32E-12,  avg # of iterations =  2.0

     negative rho (up, down):  3.085E+00 0.000E+00

     total cpu time spent up to now is      539.1 secs

     total energy              =  -11427.09401404 Ry
     estimated scf accuracy    <          6.2E-09 Ry

     iteration # 28     ecut=    25.00 Ry     beta= 0.50
     Davidson diagonalization with overlap
     ethr =  5.07E-13,  avg # of iterations =  1.0

     negative rho (up, down):  3.085E+00 0.000E+00

     total cpu time spent up to now is      551.5 secs

     total energy              =  -11427.09401404 Ry
     estimated scf accuracy    <          1.1E-09 Ry

     iteration # 29     ecut=    25.00 Ry     beta= 0.50
     Davidson diagonalization with overlap
     ethr =  1.00E-13,  avg # of iterations =  2.0

     negative rho (up, down):  3.085E+00 0.000E+00

     total cpu time spent up to now is      565.2 secs

     total energy              =  -11427.09401404 Ry
     estimated scf accuracy    <          4.5E-10 Ry

     iteration # 30     ecut=    25.00 Ry     beta= 0.50
     Davidson diagonalization with overlap
     ethr =  1.00E-13,  avg # of iterations =  1.0

     negative rho (up, down):  3.085E+00 0.000E+00

     total cpu time spent up to now is      577.7 secs

     total energy              =  -11427.09401404 Ry
     estimated scf accuracy    <          1.0E-09 Ry

     iteration # 31     ecut=    25.00 Ry     beta= 0.50
     Davidson diagonalization with overlap
     ethr =  1.00E-13,  avg # of iterations =  1.0

     negative rho (up, down):  3.085E+00 0.000E+00

     total cpu time spent up to now is      590.1 secs

     total energy              =  -11427.09401404 Ry
     estimated scf accuracy    <          1.1E-09 Ry

     iteration # 32     ecut=    25.00 Ry     beta= 0.50
     Davidson diagonalization with overlap
     ethr =  1.00E-13,  avg # of iterations =  1.0

     negative rho (up, down):  3.085E+00 0.000E+00

     total cpu time spent up to now is      602.9 secs

     total energy              =  -11427.09401404 Ry
     estimated scf accuracy    <          1.7E-10 Ry

     iteration # 33     ecut=    25.00 Ry     beta= 0.50
     Davidson diagonalization with overlap
     ethr =  1.00E-13,  avg # of iterations =  1.0

     negative rho (up, down):  3.085E+00 0.000E+00

     total cpu time spent up to now is      615.4 secs

     total energy              =  -11427.09401404 Ry
     estimated scf accuracy    <          2.6E-10 Ry

     iteration # 34     ecut=    25.00 Ry     beta= 0.50
     Davidson diagonalization with overlap
     ethr =  1.00E-13,  avg # of iterations =  1.0

     negative rho (up, down):  3.085E+00 0.000E+00

     total cpu time spent up to now is      627.9 secs

     End of self-consistent calculation

          k = 0.2500 0.5057 0.0000 ( 95386 PWs)   bands (ev):

    -8.0048  -7.7853  -7.3694  -7.1563  -6.9588  -6.8864  -6.8074  -6.6746
    -6.6108  -6.2900  -6.2193  -6.1889  -6.1050  -6.0373  -5.9302  -5.9278
    -5.8887  -5.8390  -5.8309  -5.8249  -5.7938  -5.7360  -5.7239  -5.6814
    -5.6674  -5.6495  -5.6453  -5.6401  -5.5497  -5.5384  -5.5309  -5.5226
    -5.5164  -5.5072  -5.4891  -5.4812  -5.4629  -5.4594  -5.4282  -5.3751
    -5.3690  -5.3537  -5.3515  -5.3170  -5.3098  -5.2938  -5.2912  -5.2336
    -5.2326  -5.2326  -5.2282  -5.2183  -5.1997  -5.1786  -5.1553  -5.1446
    -5.1298  -5.1243  -5.1156  -5.1141  -5.1105  -5.1091  -5.0880  -5.0674
    -5.0647  -5.0570  -5.0559  -5.0488  -5.0406  -5.0376  -5.0304  -4.9877
    -4.9820  -4.9668  -4.9637  -4.9480  -4.9342  -4.9323  -4.9288  -4.9268
    -4.9176  -4.9159  -4.9068  -4.9038  -4.8857  -4.8853  -4.8817  -4.8718
    -4.8718  -4.8620  -4.8595  -4.8486  -4.8279  -4.8269  -4.8247  -4.8220
    -4.7417  -4.7392  -4.7375  -4.7367  -4.7328  -4.7254  -4.7210  -4.7208
    -4.7201  -4.7119  -4.6994  -4.6847  -4.6741  -4.6164  -4.6000  -4.5970
    -4.5933  -4.5849  -4.5623  -4.5609  -4.5573  -4.5267  -4.4705  -4.4694
    -4.4508  -4.4137  -4.3978  -4.3950  -4.3934  -4.3931  -4.3916  -4.3853
    -4.3552  -4.3456  -4.3450  -4.3370  -4.3255  -4.3228  -4.3201  -4.3035
    -4.3020  -4.2738  -4.2644  -4.2573  -4.2476  -4.2451  -4.2293  -4.2105
    -4.1937  -4.1678  -4.1560  -4.1549  -4.1545  -4.1529  -4.1481  -4.1394
    -4.1372  -4.1044  -4.0971  -4.0833  -4.0773  -4.0761  -4.0698  -4.0543
    -4.0505  -4.0352  -4.0305  -4.0239  -4.0212  -4.0171  -4.0083  -3.9938
    -3.9866  -3.9706  -3.9585  -3.9274  -3.9139  -3.8984  -3.8930  -3.8895
    -3.8709  -3.8706  -3.8610  -3.8373  -3.8364  -3.8328  -3.8163  -3.8083
    -3.7858  -3.7800  -3.7391  -3.7357  -3.7264  -3.7240  -3.7148  -3.7100
    -3.7008  -3.6851  -3.6806  -3.6710  -3.6588  -3.6404  -3.6191  -3.6191
    -3.6171  -3.6161  -3.6054  -3.6017  -3.5989  -3.5951  -3.5916  -3.5796
    -3.5697  -3.5669  -3.5644  -3.5594  -3.5574  -3.5507  -3.5457  -3.5447
    -3.5434  -3.5341  -3.5234  -3.4921  -3.4821  -3.4562  -3.4539  -3.4428
    -3.4424  -3.4403  -3.4391  -3.4259  -3.4212  -3.4126  -3.4050  -3.3968
    -3.3877  -3.3796  -3.3739  -3.3718  -3.3702  -3.3694  -3.3642  -3.3561
    -3.3524  -3.3373  -3.3355  -3.3267  -3.3259  -3.3243  -3.3198  -3.3170
    -3.3133  -3.3128  -3.3090  -3.3085  -3.2996  -3.2968  -3.2918  -3.2859
    -3.2813  -3.2793  -3.2589  -3.2496  -3.2466  -3.2436  -3.2380  -3.2287
    -3.2195  -3.2188  -3.2140  -3.2101  -3.2020  -3.1996  -3.1888  -3.1804
    -3.1789  -3.1731  -3.1720  -3.1683  -3.1667  -3.1591  -3.1579  -3.1457
    -3.1455  -3.1215  -3.1211  -3.1105  -3.0981  -3.0905  -3.0842  -3.0578
    -3.0412  -3.0399  -3.0343  -3.0331  -3.0261  -3.0238  -3.0230  -3.0180
    -3.0171  -3.0162  -3.0154  -3.0090  -3.0023  -3.0014  -2.9892  -2.9847
    -2.9817  -2.9806  -2.9799  -2.9748  -2.9748  -2.9709  -2.9685  -2.9507
    -2.9150  -2.9129  -2.8899  -2.8757  -2.8740  -2.8622  -2.8596  -2.8492
    -2.8474  -2.8279  -2.8219  -2.8203  -2.7996  -2.7961  -2.7954  -2.7829
    -2.7796  -2.7752  -2.7672  -2.7640  -2.7501  -2.7490  -2.7467  -2.7420
    -2.7231  -2.7223  -2.7205  -2.7179  -2.6627  -2.6542  -2.6460  -2.6365
    -2.6294  -2.6260  -2.6214  -2.5954  -2.5800  -2.5697  -2.5673  -2.5668
    -2.5634  -2.5589  -2.5530  -2.5407  -2.5280  -2.5251  -2.5193  -2.5160
    -2.5089  -2.5071  -2.5010  -2.4928  -2.4898  -2.4862  -2.4803  -2.4791
    -2.4731  -2.4722  -2.4664  -2.4655  -2.4597  -2.4489  -2.4352  -2.4346
    -2.4063  -2.4000  -2.3981  -2.3741  -2.3702  -2.3631  -2.3557  -2.3557
    -2.3486  -2.3451  -2.3355  -2.3323  -2.3152  -2.3002  -2.2927  -2.2718
    -2.2684  -2.2666  -2.2636  -2.2487  -2.2432  -2.2334  -2.2315  -2.2149
    -2.2125  -2.2054  -2.2051  -2.1977  -2.1969  -2.1781  -2.1447  -2.1360
    -2.1303  -2.1057  -2.1022  -2.0846  -2.0673  -2.0483  -2.0474  -2.0440
    -2.0372  -2.0318  -2.0022  -1.9982  -1.9947  -1.9639  -1.9605  -1.9572
    -1.9559  -1.9518  -1.9479  -1.9452  -1.9392  -1.9387  -1.9368  -1.9307
    -1.9298  -1.9274  -1.9169  -1.9121  -1.9077  -1.9019  -1.8645  -1.8556
    -1.8549  -1.8384  -1.8309  -1.8271  -1.8231  -1.8169  -1.8160  -1.8135
    -1.8114  -1.8013  -1.8000  -1.7989  -1.7933  -1.7664  -1.7595  -1.7584
    -1.7574  -1.7482  -1.7431  -1.7424  -1.7364  -1.7364  -1.7265  -1.7237
    -1.7061  -1.7046  -1.6987  -1.6978  -1.6879  -1.6743  -1.6701  -1.6657
    -1.6634  -1.6586  -1.6507  -1.6286  -1.6129  -1.6036  -1.5992  -1.5973
    -1.5790  -1.5759  -1.5753  -1.5739  -1.5600  -1.5446  -1.5042  -1.4990
    -1.4925  -1.4879  -1.4799  -1.4790  -1.4705  -1.4672  -1.4597  -1.4579
    -1.4510  -1.4442  -1.4335  -1.4323  -1.4260  -1.4131  -1.4125  -1.4072
    -1.3995  -1.3816  -1.3716  -1.3684  -1.3628  -1.3579  -1.3453  -1.3395
    -1.3276  -1.3255  -1.3218  -1.3073  -1.3025  -1.2976  -1.2932  -1.2872
    -1.2870  -1.2777  -1.2764  -1.2669  -1.2645  -1.2553  -1.2535  -1.2496
    -1.2415  -1.2396  -1.2279  -1.2275  -1.2199  -1.2192  -1.2190  -1.2188
    -1.2152  -1.2087  -1.2058  -1.1779  -1.1766  -1.1705  -1.1564  -1.1553
    -1.1449  -1.1400  -1.1378  -1.1334  -1.1299  -1.1249  -1.1244  -1.1216
    -1.1188  -1.1075  -1.1058  -1.0984  -1.0873  -1.0828  -1.0799  -1.0779
    -1.0771  -1.0756  -1.0723  -1.0627  -1.0578  -1.0548  -1.0536  -1.0507
    -1.0500  -1.0441  -1.0043  -0.9810  -0.9697  -0.9648  -0.9521  -0.9371
    -0.9358  -0.9292  -0.9244  -0.9207  -0.9160  -0.9076  -0.9002  -0.8819
    -0.8780  -0.8613  -0.8299  -0.8280  -0.8259  -0.7658  -0.6680  -0.6316
    -0.6015  -0.5944  -0.5466  -0.4527  -0.3796  -0.1935  -0.1601  -0.1188
    -0.0034   0.0222   0.0573   0.1553   0.1621   0.1920   0.2707   0.2883
     0.3156   0.3347   0.5888   0.5922   0.6431   0.6719   0.7320   0.7784
     0.8028   0.8036   0.9241   0.9707   0.9832   1.1554   1.1640   1.1985
     1.3019   1.3263   1.3633   1.3876   1.4797   1.5214   1.5258   1.7955
     1.8683   1.8792   1.8973   1.9000   1.9101   1.9753   1.9822   2.0316
     2.0617   2.0734   2.1944   2.4011   2.4064   2.4084   2.4469   2.4515
     2.6433   2.6541   2.6776   2.7099   2.7217   2.7963   2.8417   3.1811
     3.2036   3.2180   3.2818   3.3296   3.3642   3.3779   3.5444   3.5476
     3.5700   3.6170   3.6260   3.7993   3.8065   3.8939   3.9031   4.0005
     4.0227   4.1244   4.1804   4.2440   4.2475   4.2705   4.3019   4.3974
     4.4721   4.4975   4.5211   4.5650   4.6631   4.8053   4.8116   4.8411
     4.8499   4.8525   4.8940   4.9671   4.9891   5.0742   5.0908   5.1946
     5.2016   5.2119   5.2381   5.2620   5.3015   5.4405   5.4932   5.5256
     5.5327   5.5332   5.5445   5.6499   5.6730   5.7197   5.7319   5.8368
     5.8523   5.8740   5.8958   5.9064   5.9065   5.9800   5.9913   6.0160
     6.0173   6.0266   6.0328   6.0424   6.0869   6.1383   6.1417   6.1479
     6.1658   6.2223   6.2291   6.3073   6.4017   6.4091   6.4470   6.4474
     6.4737   6.5149   6.5238   6.5725   6.5879   6.6324   6.6407   6.6541
     6.6608   6.6909   6.7355   6.7483   6.7688   6.8237   6.8288   6.9306
     6.9365   6.9722   6.9728   6.9987   7.0276   7.0637   7.1003   7.1088
     7.1285   7.1635   7.1908   7.1920   7.2000   7.2024   7.2796   7.2909
     7.3065   7.3548   7.3592   7.4026   7.4173   7.4340   7.4641   7.5087
     7.5609   7.5676   7.6063   7.6175   7.6581   7.6582   7.6665   7.6694
     7.6929   7.6939   7.7179   7.7230   7.7376   7.7421   7.7924   7.8309
     7.8581   7.8672   7.8735   7.9402   7.9900   7.9901   7.9964   8.0248

     occupation numbers 
     1.0000   1.0000   1.0000   1.0000   1.0000   1.0000   1.0000   1.0000
     1.0000   1.0000   1.0000   1.0000   1.0000   1.0000   1.0000   1.0000
     1.0000   1.0000   1.0000   1.0000   1.0000   1.0000   1.0000   1.0000
     1.0000   1.0000   1.0000   1.0000   1.0000   1.0000   1.0000   1.0000
     1.0000   1.0000   1.0000   1.0000   1.0000   1.0000   1.0000   1.0000
     1.0000   1.0000   1.0000   1.0000   1.0000   1.0000   1.0000   1.0000
     1.0000   1.0000   1.0000   1.0000   1.0000   1.0000   1.0000   1.0000
     1.0000   1.0000   1.0000   1.0000   1.0000   1.0000   1.0000   1.0000
     1.0000   1.0000   1.0000   1.0000   1.0000   1.0000   1.0000   1.0000
     1.0000   1.0000   1.0000   1.0000   1.0000   1.0000   1.0000   1.0000
     1.0000   1.0000   1.0000   1.0000   1.0000   1.0000   1.0000   1.0000
     1.0000   1.0000   1.0000   1.0000   1.0000   1.0000   1.0000   1.0000
     1.0000   1.0000   1.0000   1.0000   1.0000   1.0000   1.0000   1.0000
     1.0000   1.0000   1.0000   1.0000   1.0000   1.0000   1.0000   1.0000
     1.0000   1.0000   1.0000   1.0000   1.0000   1.0000   1.0000   1.0000
     1.0000   1.0000   1.0000   1.0000   1.0000   1.0000   1.0000   1.0000
     1.0000   1.0000   1.0000   1.0000   1.0000   1.0000   1.0000   1.0000
     1.0000   1.0000   1.0000   1.0000   1.0000   1.0000   1.0000   1.0000
     1.0000   1.0000   1.0000   1.0000   1.0000   1.0000   1.0000   1.0000
     1.0000   1.0000   1.0000   1.0000   1.0000   1.0000   1.0000   1.0000
     1.0000   1.0000   1.0000   1.0000   1.0000   1.0000   1.0000   1.0000
     1.0000   1.0000   1.0000   1.0000   1.0000   1.0000   1.0000   1.0000
     1.0000   1.0000   1.0000   1.0000   1.0000   1.0000   1.0000   1.0000
     1.0000   1.0000   1.0000   1.0000   1.0000   1.0000   1.0000   1.0000
     1.0000   1.0000   1.0000   1.0000   1.0000   1.0000   1.0000   1.0000
     1.0000   1.0000   1.0000   1.0000   1.0000   1.0000   1.0000   1.0000
     1.0000   1.0000   1.0000   1.0000   1.0000   1.0000   1.0000   1.0000
     1.0000   1.0000   1.0000   1.0000   1.0000   1.0000   1.0000   1.0000
     1.0000   1.0000   1.0000   1.0000   1.0000   1.0000   1.0000   1.0000
     1.0000   1.0000   1.0000   1.0000   1.0000   1.0000   1.0000   1.0000
     1.0000   1.0000   1.0000   1.0000   1.0000   1.0000   1.0000   1.0000
     1.0000   1.0000   1.0000   1.0000   1.0000   1.0000   1.0000   1.0000
     1.0000   1.0000   1.0000   1.0000   1.0000   1.0000   1.0000   1.0000
     1.0000   1.0000   1.0000   1.0000   1.0000   1.0000   1.0000   1.0000
     1.0000   1.0000   1.0000   1.0000   1.0000   1.0000   1.0000   1.0000
     1.0000   1.0000   1.0000   1.0000   1.0000   1.0000   1.0000   1.0000
     1.0000   1.0000   1.0000   1.0000   1.0000   1.0000   1.0000   1.0000
     1.0000   1.0000   1.0000   1.0000   1.0000   1.0000   1.0000   1.0000
     1.0000   1.0000   1.0000   1.0000   1.0000   1.0000   1.0000   1.0000
     1.0000   1.0000   1.0000   1.0000   1.0000   1.0000   1.0000   1.0000
     1.0000   1.0000   1.0000   1.0000   1.0000   1.0000   1.0000   1.0000
     1.0000   1.0000   1.0000   1.0000   1.0000   1.0000   1.0000   1.0000
     1.0000   1.0000   1.0000   1.0000   1.0000   1.0000   1.0000   1.0000
     1.0000   1.0000   1.0000   1.0000   1.0000   1.0000   1.0000   1.0000
     1.0000   1.0000   1.0000   1.0000   1.0000   1.0000   1.0000   1.0000
     1.0000   1.0000   1.0000   1.0000   1.0000   1.0000   1.0000   1.0000
     1.0000   1.0000   1.0000   1.0000   1.0000   1.0000   1.0000   1.0000
     1.0000   1.0000   1.0000   1.0000   1.0000   1.0000   1.0000   1.0000
     1.0000   1.0000   1.0000   1.0000   1.0000   1.0000   1.0000   1.0000
     1.0000   1.0000   1.0000   1.0000   1.0000   1.0000   1.0000   1.0000
     1.0000   1.0000   1.0000   1.0000   1.0000   1.0000   1.0000   1.0000
     1.0000   1.0000   1.0000   1.0000   1.0000   1.0000   1.0000   1.0000
     1.0000   1.0000   1.0000   1.0000   1.0000   1.0000   1.0000   1.0000
     1.0000   1.0000   1.0000   1.0000   1.0000   1.0000   1.0000   1.0000
     1.0000   1.0000   1.0000   1.0000   1.0000   1.0000   1.0000   1.0000
     1.0000   1.0000   1.0000   1.0000   1.0000   1.0000   1.0000   1.0000
     1.0000   1.0000   1.0000   1.0000   1.0000   1.0000   1.0000   1.0000
     1.0000   1.0000   1.0000   1.0000   1.0000   1.0000   1.0000   1.0000
     1.0000   1.0001   1.0001   1.0001   1.0001   1.0001   1.0001   1.0001
     1.0001   1.0001   1.0001   1.0001   1.0001   1.0001   1.0001   1.0001
     1.0001   1.0001   1.0001   1.0001   1.0002   1.0002   1.0003   1.0003
     1.0003   1.0003   1.0003   1.0003   1.0003   1.0003   1.0004   1.0004
     1.0004   1.0004   1.0004   1.0004   1.0005   1.0005   1.0005   1.0005
     1.0006   1.0006   1.0007   1.0007   1.0007   1.0007   1.0008   1.0009
     1.0009   1.0009   1.0010   1.0011   1.0011   1.0011   1.0012   1.0012
     1.0012   1.0013   1.0013   1.0014   1.0014   1.0015   1.0015   1.0016
     1.0016   1.0017   1.0018   1.0018   1.0019   1.0019   1.0019   1.0019
     1.0019   1.0020   1.0021   1.0024   1.0025   1.0026   1.0028   1.0028
     1.0030   1.0031   1.0031   1.0032   1.0033   1.0034   1.0034   1.0034
     1.0035   1.0037   1.0038   1.0039   1.0042   1.0043   1.0044   1.0044
     1.0044   1.0045   1.0046   1.0048   1.0049   1.0050   1.0051   1.0051
     1.0052   1.0053   1.0066   1.0075   1.0080   1.0082   1.0087   1.0094
     1.0094   1.0098   1.0100   1.0102   1.0104   1.0109   1.0113   1.0123
     1.0125   1.0135   1.0156   1.0158   1.0159   1.0206   1.0302   1.0344
     1.0380   1.0389   1.0451   1.0580   1.0678   1.0832   1.0832   1.0814
     1.0638   1.0569   1.0456   1.0014   0.9977   0.9800   0.9252   0.9113
     0.8887   0.8722   0.6112   0.6074   0.5510   0.5194   0.4548   0.4068
     0.3824   0.3816   0.2720   0.2352   0.2258   0.1214   0.1173   0.1021
     0.0653   0.0583   0.0490   0.0436   0.0273   0.0219   0.0213   0.0042
     0.0026   0.0024   0.0021   0.0021   0.0019   0.0012   0.0011   0.0008
     0.0006   0.0006   0.0002   0.0000   0.0000   0.0000   0.0000   0.0000
     0.0000   0.0000   0.0000   0.0000   0.0000   0.0000   0.0000   0.0000
     0.0000   0.0000   0.0000   0.0000   0.0000   0.0000   0.0000   0.0000
     0.0000   0.0000   0.0000   0.0000   0.0000   0.0000   0.0000   0.0000
     0.0000   0.0000   0.0000   0.0000   0.0000   0.0000   0.0000   0.0000
     0.0000   0.0000   0.0000   0.0000   0.0000   0.0000   0.0000   0.0000
     0.0000   0.0000   0.0000   0.0000   0.0000   0.0000   0.0000   0.0000
     0.0000   0.0000   0.0000   0.0000   0.0000   0.0000   0.0000   0.0000
     0.0000   0.0000   0.0000   0.0000   0.0000   0.0000   0.0000   0.0000
     0.0000   0.0000   0.0000   0.0000   0.0000   0.0000   0.0000   0.0000
     0.0000   0.0000   0.0000   0.0000   0.0000   0.0000   0.0000   0.0000
     0.0000   0.0000   0.0000   0.0000   0.0000   0.0000   0.0000   0.0000
     0.0000   0.0000   0.0000   0.0000   0.0000   0.0000   0.0000   0.0000
     0.0000   0.0000   0.0000   0.0000   0.0000   0.0000   0.0000   0.0000
     0.0000   0.0000   0.0000   0.0000   0.0000   0.0000   0.0000   0.0000
     0.0000   0.0000   0.0000   0.0000   0.0000   0.0000   0.0000   0.0000
     0.0000   0.0000   0.0000   0.0000   0.0000   0.0000   0.0000   0.0000
     0.0000   0.0000   0.0000   0.0000   0.0000   0.0000   0.0000   0.0000
     0.0000   0.0000   0.0000   0.0000   0.0000   0.0000   0.0000   0.0000
     0.0000   0.0000   0.0000   0.0000   0.0000   0.0000   0.0000   0.0000

          k =-0.2500 0.5057 0.0000 ( 95386 PWs)   bands (ev):

    -8.0048  -7.7853  -7.3694  -7.1563  -6.9588  -6.8864  -6.8074  -6.6746
    -6.6108  -6.2900  -6.2193  -6.1889  -6.1050  -6.0373  -5.9302  -5.9278
    -5.8887  -5.8390  -5.8309  -5.8249  -5.7938  -5.7360  -5.7239  -5.6814
    -5.6674  -5.6495  -5.6453  -5.6401  -5.5497  -5.5384  -5.5309  -5.5226
    -5.5164  -5.5072  -5.4891  -5.4812  -5.4629  -5.4594  -5.4282  -5.3751
    -5.3690  -5.3537  -5.3515  -5.3170  -5.3098  -5.2938  -5.2912  -5.2336
    -5.2326  -5.2326  -5.2282  -5.2183  -5.1997  -5.1786  -5.1553  -5.1446
    -5.1298  -5.1243  -5.1156  -5.1141  -5.1105  -5.1091  -5.0880  -5.0674
    -5.0646  -5.0570  -5.0559  -5.0488  -5.0406  -5.0376  -5.0304  -4.9877
    -4.9820  -4.9668  -4.9637  -4.9480  -4.9342  -4.9323  -4.9288  -4.9268
    -4.9176  -4.9159  -4.9068  -4.9038  -4.8857  -4.8853  -4.8817  -4.8718
    -4.8718  -4.8620  -4.8595  -4.8486  -4.8279  -4.8269  -4.8247  -4.8220
    -4.7417  -4.7392  -4.7375  -4.7367  -4.7328  -4.7254  -4.7211  -4.7207
    -4.7201  -4.7119  -4.6994  -4.6847  -4.6741  -4.6164  -4.6000  -4.5970
    -4.5933  -4.5849  -4.5623  -4.5609  -4.5573  -4.5267  -4.4705  -4.4694
    -4.4508  -4.4137  -4.3978  -4.3950  -4.3934  -4.3931  -4.3916  -4.3853
    -4.3552  -4.3456  -4.3450  -4.3370  -4.3255  -4.3228  -4.3201  -4.3035
    -4.3020  -4.2738  -4.2644  -4.2573  -4.2476  -4.2451  -4.2293  -4.2105
    -4.1937  -4.1678  -4.1561  -4.1549  -4.1544  -4.1529  -4.1481  -4.1394
    -4.1372  -4.1044  -4.0971  -4.0833  -4.0773  -4.0761  -4.0698  -4.0543
    -4.0505  -4.0352  -4.0305  -4.0239  -4.0212  -4.0171  -4.0083  -3.9938
    -3.9866  -3.9706  -3.9585  -3.9274  -3.9139  -3.8984  -3.8930  -3.8895
    -3.8709  -3.8706  -3.8610  -3.8373  -3.8364  -3.8328  -3.8163  -3.8083
    -3.7858  -3.7800  -3.7391  -3.7357  -3.7264  -3.7240  -3.7148  -3.7100
    -3.7008  -3.6851  -3.6806  -3.6710  -3.6588  -3.6404  -3.6191  -3.6190
    -3.6171  -3.6161  -3.6054  -3.6017  -3.5989  -3.5951  -3.5916  -3.5796
    -3.5697  -3.5669  -3.5644  -3.5594  -3.5574  -3.5507  -3.5457  -3.5447
    -3.5434  -3.5341  -3.5234  -3.4921  -3.4821  -3.4562  -3.4539  -3.4428
    -3.4424  -3.4403  -3.4391  -3.4259  -3.4212  -3.4126  -3.4050  -3.3968
    -3.3877  -3.3796  -3.3739  -3.3718  -3.3702  -3.3694  -3.3642  -3.3562
    -3.3524  -3.3373  -3.3355  -3.3267  -3.3260  -3.3243  -3.3198  -3.3170
    -3.3133  -3.3128  -3.3090  -3.3085  -3.2996  -3.2968  -3.2918  -3.2859
    -3.2813  -3.2793  -3.2589  -3.2496  -3.2466  -3.2436  -3.2380  -3.2287
    -3.2195  -3.2188  -3.2141  -3.2101  -3.2020  -3.1996  -3.1888  -3.1804
    -3.1789  -3.1731  -3.1720  -3.1683  -3.1667  -3.1591  -3.1579  -3.1457
    -3.1455  -3.1215  -3.1211  -3.1105  -3.0981  -3.0905  -3.0842  -3.0578
    -3.0412  -3.0398  -3.0343  -3.0331  -3.0261  -3.0238  -3.0230  -3.0179
    -3.0172  -3.0162  -3.0154  -3.0090  -3.0023  -3.0013  -2.9892  -2.9847
    -2.9817  -2.9805  -2.9799  -2.9749  -2.9748  -2.9709  -2.9685  -2.9507
    -2.9150  -2.9129  -2.8899  -2.8757  -2.8740  -2.8622  -2.8596  -2.8492
    -2.8474  -2.8279  -2.8219  -2.8203  -2.7996  -2.7961  -2.7954  -2.7829
    -2.7796  -2.7752  -2.7672  -2.7639  -2.7501  -2.7490  -2.7467  -2.7420
    -2.7231  -2.7223  -2.7205  -2.7179  -2.6627  -2.6542  -2.6460  -2.6365
    -2.6294  -2.6260  -2.6214  -2.5954  -2.5800  -2.5696  -2.5673  -2.5668
    -2.5634  -2.5589  -2.5530  -2.5407  -2.5280  -2.5251  -2.5193  -2.5160
    -2.5088  -2.5071  -2.5010  -2.4928  -2.4898  -2.4862  -2.4803  -2.4791
    -2.4731  -2.4722  -2.4664  -2.4655  -2.4597  -2.4489  -2.4352  -2.4346
    -2.4063  -2.4000  -2.3981  -2.3741  -2.3702  -2.3631  -2.3557  -2.3557
    -2.3486  -2.3451  -2.3355  -2.3323  -2.3152  -2.3002  -2.2927  -2.2718
    -2.2684  -2.2666  -2.2636  -2.2487  -2.2432  -2.2334  -2.2315  -2.2149
    -2.2125  -2.2054  -2.2051  -2.1977  -2.1969  -2.1781  -2.1447  -2.1360
    -2.1303  -2.1057  -2.1022  -2.0846  -2.0674  -2.0483  -2.0474  -2.0440
    -2.0372  -2.0318  -2.0022  -1.9982  -1.9947  -1.9639  -1.9605  -1.9572
    -1.9559  -1.9518  -1.9479  -1.9452  -1.9392  -1.9387  -1.9368  -1.9308
    -1.9298  -1.9274  -1.9169  -1.9121  -1.9077  -1.9019  -1.8645  -1.8556
    -1.8549  -1.8384  -1.8309  -1.8271  -1.8231  -1.8169  -1.8160  -1.8135
    -1.8114  -1.8013  -1.8000  -1.7989  -1.7933  -1.7664  -1.7595  -1.7584
    -1.7574  -1.7482  -1.7431  -1.7424  -1.7364  -1.7364  -1.7265  -1.7237
    -1.7061  -1.7046  -1.6987  -1.6978  -1.6879  -1.6743  -1.6701  -1.6657
    -1.6634  -1.6586  -1.6507  -1.6286  -1.6129  -1.6036  -1.5992  -1.5973
    -1.5790  -1.5759  -1.5753  -1.5739  -1.5600  -1.5446  -1.5042  -1.4990
    -1.4925  -1.4879  -1.4799  -1.4790  -1.4705  -1.4672  -1.4597  -1.4579
    -1.4510  -1.4442  -1.4335  -1.4323  -1.4260  -1.4131  -1.4125  -1.4072
    -1.3995  -1.3816  -1.3716  -1.3684  -1.3628  -1.3579  -1.3452  -1.3395
    -1.3276  -1.3255  -1.3218  -1.3073  -1.3025  -1.2976  -1.2931  -1.2872
    -1.2870  -1.2777  -1.2764  -1.2669  -1.2645  -1.2553  -1.2535  -1.2496
    -1.2415  -1.2396  -1.2279  -1.2275  -1.2199  -1.2192  -1.2190  -1.2188
    -1.2152  -1.2087  -1.2058  -1.1779  -1.1766  -1.1705  -1.1564  -1.1553
    -1.1449  -1.1400  -1.1378  -1.1334  -1.1299  -1.1249  -1.1244  -1.1216
    -1.1188  -1.1075  -1.1058  -1.0984  -1.0873  -1.0828  -1.0799  -1.0779
    -1.0771  -1.0756  -1.0723  -1.0628  -1.0578  -1.0548  -1.0536  -1.0507
    -1.0501  -1.0441  -1.0043  -0.9810  -0.9697  -0.9648  -0.9521  -0.9373
    -0.9356  -0.9292  -0.9244  -0.9207  -0.9160  -0.9076  -0.9002  -0.8819
    -0.8780  -0.8613  -0.8299  -0.8280  -0.8259  -0.7658  -0.6680  -0.6316
    -0.6015  -0.5944  -0.5466  -0.4527  -0.3796  -0.1935  -0.1601  -0.1188
    -0.0034   0.0222   0.0573   0.1553   0.1621   0.1920   0.2707   0.2883
     0.3156   0.3347   0.5888   0.5922   0.6431   0.6719   0.7320   0.7784
     0.8028   0.8036   0.9241   0.9707   0.9832   1.1554   1.1640   1.1985
     1.3019   1.3263   1.3633   1.3876   1.4797   1.5214   1.5258   1.7955
     1.8683   1.8792   1.8973   1.9000   1.9101   1.9753   1.9822   2.0316
     2.0617   2.0734   2.1944   2.4011   2.4064   2.4084   2.4469   2.4515
     2.6433   2.6541   2.6776   2.7099   2.7217   2.7963   2.8417   3.1811
     3.2036   3.2180   3.2818   3.3296   3.3642   3.3779   3.5444   3.5476
     3.5700   3.6170   3.6260   3.7993   3.8065   3.8939   3.9031   4.0005
     4.0227   4.1244   4.1804   4.2440   4.2475   4.2705   4.3019   4.3974
     4.4721   4.4975   4.5211   4.5650   4.6631   4.8053   4.8116   4.8411
     4.8499   4.8525   4.8940   4.9671   4.9891   5.0742   5.0908   5.1946
     5.2016   5.2119   5.2381   5.2620   5.3015   5.4405   5.4932   5.5256
     5.5327   5.5332   5.5445   5.6499   5.6730   5.7197   5.7319   5.8368
     5.8523   5.8740   5.8958   5.9064   5.9065   5.9800   5.9913   6.0160
     6.0173   6.0266   6.0328   6.0424   6.0869   6.1383   6.1417   6.1479
     6.1658   6.2223   6.2291   6.3073   6.4017   6.4091   6.4470   6.4474
     6.4737   6.5149   6.5238   6.5725   6.5879   6.6323   6.6407   6.6541
     6.6608   6.6909   6.7355   6.7483   6.7688   6.8237   6.8288   6.9306
     6.9365   6.9722   6.9728   6.9987   7.0276   7.0637   7.1003   7.1088
     7.1285   7.1635   7.1908   7.1920   7.2000   7.2024   7.2796   7.2909
     7.3065   7.3548   7.3592   7.4026   7.4173   7.4340   7.4641   7.5087
     7.5609   7.5676   7.6063   7.6175   7.6581   7.6582   7.6665   7.6694
     7.6929   7.6939   7.7179   7.7230   7.7376   7.7421   7.7924   7.8309
     7.8581   7.8672   7.8736   7.9402   7.9898   7.9901   7.9963   8.0018

     occupation numbers 
     1.0000   1.0000   1.0000   1.0000   1.0000   1.0000   1.0000   1.0000
     1.0000   1.0000   1.0000   1.0000   1.0000   1.0000   1.0000   1.0000
     1.0000   1.0000   1.0000   1.0000   1.0000   1.0000   1.0000   1.0000
     1.0000   1.0000   1.0000   1.0000   1.0000   1.0000   1.0000   1.0000
     1.0000   1.0000   1.0000   1.0000   1.0000   1.0000   1.0000   1.0000
     1.0000   1.0000   1.0000   1.0000   1.0000   1.0000   1.0000   1.0000
     1.0000   1.0000   1.0000   1.0000   1.0000   1.0000   1.0000   1.0000
     1.0000   1.0000   1.0000   1.0000   1.0000   1.0000   1.0000   1.0000
     1.0000   1.0000   1.0000   1.0000   1.0000   1.0000   1.0000   1.0000
     1.0000   1.0000   1.0000   1.0000   1.0000   1.0000   1.0000   1.0000
     1.0000   1.0000   1.0000   1.0000   1.0000   1.0000   1.0000   1.0000
     1.0000   1.0000   1.0000   1.0000   1.0000   1.0000   1.0000   1.0000
     1.0000   1.0000   1.0000   1.0000   1.0000   1.0000   1.0000   1.0000
     1.0000   1.0000   1.0000   1.0000   1.0000   1.0000   1.0000   1.0000
     1.0000   1.0000   1.0000   1.0000   1.0000   1.0000   1.0000   1.0000
     1.0000   1.0000   1.0000   1.0000   1.0000   1.0000   1.0000   1.0000
     1.0000   1.0000   1.0000   1.0000   1.0000   1.0000   1.0000   1.0000
     1.0000   1.0000   1.0000   1.0000   1.0000   1.0000   1.0000   1.0000
     1.0000   1.0000   1.0000   1.0000   1.0000   1.0000   1.0000   1.0000
     1.0000   1.0000   1.0000   1.0000   1.0000   1.0000   1.0000   1.0000
     1.0000   1.0000   1.0000   1.0000   1.0000   1.0000   1.0000   1.0000
     1.0000   1.0000   1.0000   1.0000   1.0000   1.0000   1.0000   1.0000
     1.0000   1.0000   1.0000   1.0000   1.0000   1.0000   1.0000   1.0000
     1.0000   1.0000   1.0000   1.0000   1.0000   1.0000   1.0000   1.0000
     1.0000   1.0000   1.0000   1.0000   1.0000   1.0000   1.0000   1.0000
     1.0000   1.0000   1.0000   1.0000   1.0000   1.0000   1.0000   1.0000
     1.0000   1.0000   1.0000   1.0000   1.0000   1.0000   1.0000   1.0000
     1.0000   1.0000   1.0000   1.0000   1.0000   1.0000   1.0000   1.0000
     1.0000   1.0000   1.0000   1.0000   1.0000   1.0000   1.0000   1.0000
     1.0000   1.0000   1.0000   1.0000   1.0000   1.0000   1.0000   1.0000
     1.0000   1.0000   1.0000   1.0000   1.0000   1.0000   1.0000   1.0000
     1.0000   1.0000   1.0000   1.0000   1.0000   1.0000   1.0000   1.0000
     1.0000   1.0000   1.0000   1.0000   1.0000   1.0000   1.0000   1.0000
     1.0000   1.0000   1.0000   1.0000   1.0000   1.0000   1.0000   1.0000
     1.0000   1.0000   1.0000   1.0000   1.0000   1.0000   1.0000   1.0000
     1.0000   1.0000   1.0000   1.0000   1.0000   1.0000   1.0000   1.0000
     1.0000   1.0000   1.0000   1.0000   1.0000   1.0000   1.0000   1.0000
     1.0000   1.0000   1.0000   1.0000   1.0000   1.0000   1.0000   1.0000
     1.0000   1.0000   1.0000   1.0000   1.0000   1.0000   1.0000   1.0000
     1.0000   1.0000   1.0000   1.0000   1.0000   1.0000   1.0000   1.0000
     1.0000   1.0000   1.0000   1.0000   1.0000   1.0000   1.0000   1.0000
     1.0000   1.0000   1.0000   1.0000   1.0000   1.0000   1.0000   1.0000
     1.0000   1.0000   1.0000   1.0000   1.0000   1.0000   1.0000   1.0000
     1.0000   1.0000   1.0000   1.0000   1.0000   1.0000   1.0000   1.0000
     1.0000   1.0000   1.0000   1.0000   1.0000   1.0000   1.0000   1.0000
     1.0000   1.0000   1.0000   1.0000   1.0000   1.0000   1.0000   1.0000
     1.0000   1.0000   1.0000   1.0000   1.0000   1.0000   1.0000   1.0000
     1.0000   1.0000   1.0000   1.0000   1.0000   1.0000   1.0000   1.0000
     1.0000   1.0000   1.0000   1.0000   1.0000   1.0000   1.0000   1.0000
     1.0000   1.0000   1.0000   1.0000   1.0000   1.0000   1.0000   1.0000
     1.0000   1.0000   1.0000   1.0000   1.0000   1.0000   1.0000   1.0000
     1.0000   1.0000   1.0000   1.0000   1.0000   1.0000   1.0000   1.0000
     1.0000   1.0000   1.0000   1.0000   1.0000   1.0000   1.0000   1.0000
     1.0000   1.0000   1.0000   1.0000   1.0000   1.0000   1.0000   1.0000
     1.0000   1.0000   1.0000   1.0000   1.0000   1.0000   1.0000   1.0000
     1.0000   1.0000   1.0000   1.0000   1.0000   1.0000   1.0000   1.0000
     1.0000   1.0000   1.0000   1.0000   1.0000   1.0000   1.0000   1.0000
     1.0000   1.0000   1.0000   1.0000   1.0000   1.0000   1.0000   1.0000
     1.0000   1.0001   1.0001   1.0001   1.0001   1.0001   1.0001   1.0001
     1.0001   1.0001   1.0001   1.0001   1.0001   1.0001   1.0001   1.0001
     1.0001   1.0001   1.0001   1.0001   1.0002   1.0002   1.0003   1.0003
     1.0003   1.0003   1.0003   1.0003   1.0003   1.0003   1.0004   1.0004
     1.0004   1.0004   1.0004   1.0004   1.0005   1.0005   1.0005   1.0005
     1.0006   1.0006   1.0007   1.0007   1.0007   1.0007   1.0008   1.0009
     1.0009   1.0009   1.0010   1.0011   1.0011   1.0011   1.0012   1.0012
     1.0012   1.0013   1.0013   1.0014   1.0014   1.0015   1.0015   1.0016
     1.0016   1.0017   1.0018   1.0018   1.0019   1.0019   1.0019   1.0019
     1.0019   1.0020   1.0021   1.0024   1.0025   1.0026   1.0028   1.0028
     1.0030   1.0031   1.0031   1.0032   1.0033   1.0034   1.0034   1.0034
     1.0035   1.0037   1.0038   1.0039   1.0042   1.0043   1.0044   1.0044
     1.0044   1.0045   1.0046   1.0048   1.0049   1.0050   1.0051   1.0051
     1.0052   1.0053   1.0066   1.0075   1.0080   1.0082   1.0087   1.0094
     1.0095   1.0098   1.0100   1.0102   1.0104   1.0109   1.0113   1.0123
     1.0125   1.0135   1.0156   1.0158   1.0159   1.0206   1.0302   1.0344
     1.0380   1.0389   1.0451   1.0580   1.0678   1.0832   1.0832   1.0814
     1.0638   1.0569   1.0456   1.0014   0.9977   0.9800   0.9252   0.9113
     0.8887   0.8722   0.6112   0.6074   0.5510   0.5194   0.4548   0.4068
     0.3824   0.3816   0.2720   0.2351   0.2258   0.1214   0.1173   0.1021
     0.0653   0.0583   0.0490   0.0436   0.0273   0.0219   0.0213   0.0042
     0.0026   0.0024   0.0021   0.0021   0.0019   0.0012   0.0011   0.0008
     0.0006   0.0006   0.0002   0.0000   0.0000   0.0000   0.0000   0.0000
     0.0000   0.0000   0.0000   0.0000   0.0000   0.0000   0.0000   0.0000
     0.0000   0.0000   0.0000   0.0000   0.0000   0.0000   0.0000   0.0000
     0.0000   0.0000   0.0000   0.0000   0.0000   0.0000   0.0000   0.0000
     0.0000   0.0000   0.0000   0.0000   0.0000   0.0000   0.0000   0.0000
     0.0000   0.0000   0.0000   0.0000   0.0000   0.0000   0.0000   0.0000
     0.0000   0.0000   0.0000   0.0000   0.0000   0.0000   0.0000   0.0000
     0.0000   0.0000   0.0000   0.0000   0.0000   0.0000   0.0000   0.0000
     0.0000   0.0000   0.0000   0.0000   0.0000   0.0000   0.0000   0.0000
     0.0000   0.0000   0.0000   0.0000   0.0000   0.0000   0.0000   0.0000
     0.0000   0.0000   0.0000   0.0000   0.0000   0.0000   0.0000   0.0000
     0.0000   0.0000   0.0000   0.0000   0.0000   0.0000   0.0000   0.0000
     0.0000   0.0000   0.0000   0.0000   0.0000   0.0000   0.0000   0.0000
     0.0000   0.0000   0.0000   0.0000   0.0000   0.0000   0.0000   0.0000
     0.0000   0.0000   0.0000   0.0000   0.0000   0.0000   0.0000   0.0000
     0.0000   0.0000   0.0000   0.0000   0.0000   0.0000   0.0000   0.0000
     0.0000   0.0000   0.0000   0.0000   0.0000   0.0000   0.0000   0.0000
     0.0000   0.0000   0.0000   0.0000   0.0000   0.0000   0.0000   0.0000
     0.0000   0.0000   0.0000   0.0000   0.0000   0.0000   0.0000   0.0000
     0.0000   0.0000   0.0000   0.0000   0.0000   0.0000   0.0000   0.0000

     the Fermi energy is     0.7845 ev

!    total energy              =  -11427.09401404 Ry
     estimated scf accuracy    <          6.8E-11 Ry
     smearing contrib. (-TS)   =       0.06310559 Ry
     internal energy E=F+TS    =  -11427.15711963 Ry

     The total energy is F=E-TS. E is the sum of the following terms:
     one-electron contribution = -129707.72772170 Ry
     hartree contribution      =   65677.91271412 Ry
     xc contribution           =   -5523.82463040 Ry
     ewald contribution        =   58126.48251834 Ry

     convergence has been achieved in  34 iterations

     negative rho (up, down):  3.085E+00 0.000E+00

     Forces acting on atoms (cartesian axes, Ry/au):

     atom    1 type  1   force =    -0.00099400    0.00015979    0.00836853
     atom    2 type  1   force =    -0.00098854   -0.00021596    0.00808829
     atom    3 type  1   force =    -0.00013346    0.00022135    0.00899027
     atom    4 type  1   force =    -0.00013296   -0.00016161    0.00870689
     atom    5 type  1   force =     0.00006137    0.00025209    0.00904203
     atom    6 type  1   force =     0.00006123   -0.00013147    0.00875810
     atom    7 type  1   force =    -0.00009469    0.00023361    0.00898864
     atom    8 type  1   force =    -0.00009389   -0.00014951    0.00870514
     atom    9 type  1   force =     0.00010640    0.00023293    0.00898781
     atom   10 type  1   force =     0.00010600   -0.00014996    0.00870415
     atom   11 type  1   force =    -0.00009009    0.00024563    0.00904579
     atom   12 type  1   force =    -0.00008997   -0.00013785    0.00876175
     atom   13 type  1   force =     0.00077290    0.00026818    0.00883970
     atom   14 type  1   force =     0.00077121   -0.00011422    0.00855645
     atom   15 type  1   force =    -0.00128816    0.00041672   -0.00532524
     atom   16 type  1   force =    -0.00128408   -0.00007245   -0.00543352
     atom   17 type  1   force =    -0.00015785    0.00038868   -0.00535418
     atom   18 type  1   force =    -0.00015735   -0.00010783   -0.00546269
     atom   19 type  1   force =     0.00007427    0.00039425   -0.00534189
     atom   20 type  1   force =     0.00007400   -0.00010332   -0.00545052
     atom   21 type  1   force =    -0.00012344    0.00039776   -0.00534048
     atom   22 type  1   force =    -0.00012285   -0.00009918   -0.00544924
     atom   23 type  1   force =     0.00013448    0.00039783   -0.00534004
     atom   24 type  1   force =     0.00013403   -0.00009898   -0.00544851
     atom   25 type  1   force =    -0.00012489    0.00039148   -0.00535202
     atom   26 type  1   force =    -0.00012465   -0.00010612   -0.00546055
     atom   27 type  1   force =     0.00098984    0.00039248   -0.00532418
     atom   28 type  1   force =     0.00098835   -0.00010377   -0.00543280
     atom   29 type  1   force =    -0.00057667   -0.00010154    0.00857719
     atom   30 type  1   force =    -0.00057758   -0.00050463    0.00862779
     atom   31 type  1   force =    -0.00004337   -0.00012201    0.00878298
     atom   32 type  1   force =    -0.00004341   -0.00052604    0.00883407
     atom   33 type  1   force =     0.00009777   -0.00013398    0.00872824
     atom   34 type  1   force =     0.00009856   -0.00053754    0.00877880
     atom   35 type  1   force =    -0.00000250   -0.00012087    0.00876207
     atom   36 type  1   force =    -0.00000273   -0.00052488    0.00881341
     atom   37 type  1   force =    -0.00009855   -0.00012754    0.00872715
     atom   38 type  1   force =    -0.00009923   -0.00053105    0.00877784
     atom   39 type  1   force =     0.00009640   -0.00013366    0.00877574
     atom   40 type  1   force =     0.00009645   -0.00053780    0.00882678
     atom   41 type  1   force =     0.00089397   -0.00021822    0.00807494
     atom   42 type  1   force =     0.00089783   -0.00061437    0.00812555
     atom   43 type  1   force =    -0.00073332   -0.00010719   -0.00536185
     atom   44 type  1   force =    -0.00073404   -0.00062368   -0.00533286
     atom   45 type  1   force =    -0.00005079   -0.00010884   -0.00539022
     atom   46 type  1   force =    -0.00005106   -0.00062629   -0.00536095
     atom   47 type  1   force =     0.00013033   -0.00010075   -0.00537981
     atom   48 type  1   force =     0.00013100   -0.00061731   -0.00535050
     atom   49 type  1   force =    -0.00000389   -0.00010363   -0.00537540
     atom   50 type  1   force =    -0.00000392   -0.00062140   -0.00534635
     atom   51 type  1   force =    -0.00011940   -0.00010255   -0.00538053
     atom   52 type  1   force =    -0.00012003   -0.00061918   -0.00535104
     atom   53 type  1   force =     0.00011157   -0.00011411   -0.00539207
     atom   54 type  1   force =     0.00011162   -0.00063166   -0.00536300
     atom   55 type  1   force =     0.00115845   -0.00007262   -0.00536774
     atom   56 type  1   force =     0.00116380   -0.00058144   -0.00533702
     atom   57 type  1   force =    -0.00099313    0.00069091   -0.00841005
     atom   58 type  1   force =    -0.00098859    0.00023380   -0.00808206
     atom   59 type  1   force =    -0.00013296    0.00064401   -0.00903113
     atom   60 type  1   force =    -0.00013240    0.00017972   -0.00870233
     atom   61 type  1   force =     0.00006212    0.00061418   -0.00908182
     atom   62 type  1   force =     0.00006200    0.00014908   -0.00875309
     atom   63 type  1   force =    -0.00009389    0.00063130   -0.00902984
     atom   64 type  1   force =    -0.00009353    0.00016671   -0.00870056
     atom   65 type  1   force =     0.00010527    0.00063181   -0.00902987
     atom   66 type  1   force =     0.00010495    0.00016751   -0.00870045
     atom   67 type  1   force =    -0.00009145    0.00062000   -0.00908681
     atom   68 type  1   force =    -0.00009126    0.00015521   -0.00875769
     atom   69 type  1   force =     0.00077391    0.00059593   -0.00888173
     atom   70 type  1   force =     0.00077201    0.00013223   -0.00855311
     atom   71 type  1   force =    -0.00073432    0.00076201    0.00519871
     atom   72 type  1   force =    -0.00073330    0.00022303    0.00536548
     atom   73 type  1   force =    -0.00005090    0.00076510    0.00522755
     atom   74 type  1   force =    -0.00005062    0.00022507    0.00539424
     atom   75 type  1   force =     0.00013198    0.00075615    0.00521549
     atom   76 type  1   force =     0.00013111    0.00021648    0.00538239
     atom   77 type  1   force =    -0.00000398    0.00076079    0.00521104
     atom   78 type  1   force =    -0.00000391    0.00022075    0.00537762
     atom   79 type  1   force =    -0.00012133    0.00075807    0.00521806
     atom   80 type  1   force =    -0.00012061    0.00021856    0.00538464
     atom   81 type  1   force =     0.00011202    0.00077019    0.00523097
     atom   82 type  1   force =     0.00011181    0.00023004    0.00539775
     atom   83 type  1   force =     0.00116293    0.00071820    0.00520494
     atom   84 type  1   force =     0.00115720    0.00018676    0.00537133
     atom   85 type  1   force =    -0.00128423    0.00005382    0.00536184
     atom   86 type  1   force =    -0.00128867   -0.00075071    0.00553874
     atom   87 type  1   force =    -0.00015774    0.00008983    0.00539101
     atom   88 type  1   force =    -0.00015801   -0.00072576    0.00556809
     atom   89 type  1   force =     0.00007439    0.00008536    0.00537641
     atom   90 type  1   force =     0.00007438   -0.00073167    0.00555352
     atom   91 type  1   force =    -0.00012239    0.00007952    0.00537590
     atom   92 type  1   force =    -0.00012287   -0.00073603    0.00555243
     atom   93 type  1   force =     0.00013302    0.00007995    0.00537608
     atom   94 type  1   force =     0.00013342   -0.00073589    0.00555287
     atom   95 type  1   force =    -0.00012474    0.00008854    0.00538739
     atom   96 type  1   force =    -0.00012475   -0.00072816    0.00556430
     atom   97 type  1   force =     0.00098903    0.00008589    0.00536146
     atom   98 type  1   force =     0.00099043   -0.00072910    0.00553822
     atom   99 type  1   force =    -0.00057517    0.00011665   -0.00855789
     atom  100 type  1   force =    -0.00057569   -0.00029375   -0.00862000
     atom  101 type  1   force =    -0.00004208    0.00014014   -0.00876639
     atom  102 type  1   force =    -0.00004208   -0.00027085   -0.00882839
     atom  103 type  1   force =     0.00009685    0.00015039   -0.00870914
     atom  104 type  1   force =     0.00009728   -0.00026028   -0.00877128
     atom  105 type  1   force =    -0.00000300    0.00013530   -0.00874007
     atom  106 type  1   force =    -0.00000297   -0.00027588   -0.00880248
     atom  107 type  1   force =    -0.00009713    0.00014474   -0.00870994
     atom  108 type  1   force =    -0.00009762   -0.00026576   -0.00877209
     atom  109 type  1   force =     0.00009420    0.00015107   -0.00875872
     atom  110 type  1   force =     0.00009426   -0.00026025   -0.00882066
     atom  111 type  1   force =     0.00089345    0.00023330   -0.00805479
     atom  112 type  1   force =     0.00089682   -0.00016976   -0.00811698
     The non-local contrib.  to forces
     atom    1 type  1   force =     0.00083354   -0.00072516   -0.07829336
     atom    2 type  1   force =     0.00082780   -0.00038514   -0.07777538
     atom    3 type  1   force =     0.00028815   -0.00077911   -0.07947972
     atom    4 type  1   force =     0.00028690   -0.00043120   -0.07895922
     atom    5 type  1   force =    -0.00001810   -0.00083813   -0.07960295
     atom    6 type  1   force =    -0.00001794   -0.00048889   -0.07908215
     atom    7 type  1   force =     0.00006375   -0.00081513   -0.07951686
     atom    8 type  1   force =     0.00006331   -0.00046682   -0.07899623
     atom    9 type  1   force =    -0.00007734   -0.00082149   -0.07950228
     atom   10 type  1   force =    -0.00007691   -0.00047304   -0.07898179
     atom   11 type  1   force =     0.00011085   -0.00082337   -0.07959566
     atom   12 type  1   force =     0.00011092   -0.00047429   -0.07907473
     atom   13 type  1   force =    -0.00096265   -0.00084171   -0.07904100
     atom   14 type  1   force =    -0.00095867   -0.00049518   -0.07852048
     atom   15 type  1   force =     0.00132131   -0.00073978    0.00330557
     atom   16 type  1   force =     0.00131711    0.00002626    0.00352120
     atom   17 type  1   force =     0.00040028   -0.00073371    0.00318272
     atom   18 type  1   force =     0.00039953    0.00003993    0.00339932
     atom   19 type  1   force =    -0.00004096   -0.00074630    0.00317265
     atom   20 type  1   force =    -0.00004084    0.00002865    0.00338972
     atom   21 type  1   force =     0.00011672   -0.00074256    0.00317846
     atom   22 type  1   force =     0.00011635    0.00003152    0.00339531
     atom   23 type  1   force =    -0.00011525   -0.00074045    0.00316175
     atom   24 type  1   force =    -0.00011494    0.00003368    0.00337868
     atom   25 type  1   force =     0.00009090   -0.00074371    0.00318216
     atom   26 type  1   force =     0.00009107    0.00003101    0.00339919
     atom   27 type  1   force =    -0.00136562   -0.00075804    0.00325406
     atom   28 type  1   force =    -0.00136314    0.00001470    0.00347054
     atom   29 type  1   force =     0.00080437   -0.00063017   -0.07858863
     atom   30 type  1   force =     0.00080665   -0.00010654   -0.07875281
     atom   31 type  1   force =     0.00003620   -0.00061055   -0.07914828
     atom   32 type  1   force =     0.00003681   -0.00008420   -0.07931113
     atom   33 type  1   force =    -0.00007790   -0.00061072   -0.07905770
     atom   34 type  1   force =    -0.00007815   -0.00008501   -0.07922076
     atom   35 type  1   force =     0.00000858   -0.00062368   -0.07909813
     atom   36 type  1   force =     0.00000842   -0.00009745   -0.07926098
     atom   37 type  1   force =     0.00002959   -0.00061342   -0.07908504
     atom   38 type  1   force =     0.00002979   -0.00008755   -0.07924803
     atom   39 type  1   force =    -0.00027555   -0.00057828   -0.07910636
     atom   40 type  1   force =    -0.00027620   -0.00005247   -0.07926942
     atom   41 type  1   force =    -0.00076081   -0.00050123   -0.07781899
     atom   42 type  1   force =    -0.00076495    0.00001563   -0.07798204
     atom   43 type  1   force =     0.00111875   -0.00016337    0.00336976
     atom   44 type  1   force =     0.00112146    0.00042980    0.00327196
     atom   45 type  1   force =     0.00011633   -0.00014742    0.00329960
     atom   46 type  1   force =     0.00011702    0.00044766    0.00320205
     atom   47 type  1   force =    -0.00012920   -0.00014496    0.00328079
     atom   48 type  1   force =    -0.00012981    0.00044965    0.00318322
     atom   49 type  1   force =    -0.00000217   -0.00014980    0.00329399
[...]
     atom   56 type  1   force =     0.00000000    0.00000000    0.00000000
     atom   57 type  1   force =     0.00000000    0.00000000    0.00000000
     atom   58 type  1   force =     0.00000000    0.00000000    0.00000000
     atom   59 type  1   force =     0.00000000    0.00000000    0.00000000
     atom   60 type  1   force =     0.00000000    0.00000000    0.00000000
     atom   61 type  1   force =     0.00000000    0.00000000    0.00000000
     atom   62 type  1   force =     0.00000000    0.00000000    0.00000000
     atom   63 type  1   force =     0.00000000    0.00000000    0.00000000
     atom   64 type  1   force =     0.00000000    0.00000000    0.00000000
     atom   65 type  1   force =     0.00000000    0.00000000    0.00000000
     atom   66 type  1   force =     0.00000000    0.00000000    0.00000000
     atom   67 type  1   force =     0.00000000    0.00000000    0.00000000
     atom   68 type  1   force =     0.00000000    0.00000000    0.00000000
     atom   69 type  1   force =     0.00000000    0.00000000    0.00000000
     atom   70 type  1   force =     0.00000000    0.00000000    0.00000000
     atom   71 type  1   force =     0.00000000    0.00000000    0.00000000
     atom   72 type  1   force =     0.00000000    0.00000000    0.00000000
     atom   73 type  1   force =     0.00000000    0.00000000    0.00000000
     atom   74 type  1   force =     0.00000000    0.00000000    0.00000000
     atom   75 type  1   force =     0.00000000    0.00000000    0.00000000
     atom   76 type  1   force =     0.00000000    0.00000000    0.00000000
     atom   77 type  1   force =     0.00000000    0.00000000    0.00000000
     atom   78 type  1   force =     0.00000000    0.00000000    0.00000000
     atom   79 type  1   force =     0.00000000    0.00000000    0.00000000
     atom   80 type  1   force =     0.00000000    0.00000000    0.00000000
     atom   81 type  1   force =     0.00000000    0.00000000    0.00000000
     atom   82 type  1   force =     0.00000000    0.00000000    0.00000000
     atom   83 type  1   force =     0.00000000    0.00000000    0.00000000
     atom   84 type  1   force =     0.00000000    0.00000000    0.00000000
     atom   85 type  1   force =     0.00000000    0.00000000    0.00000000
     atom   86 type  1   force =     0.00000000    0.00000000    0.00000000
     atom   87 type  1   force =     0.00000000    0.00000000    0.00000000
     atom   88 type  1   force =     0.00000000    0.00000000    0.00000000
     atom   89 type  1   force =     0.00000000    0.00000000    0.00000000
     atom   90 type  1   force =     0.00000000    0.00000000    0.00000000
     atom   91 type  1   force =     0.00000000    0.00000000    0.00000000
     atom   92 type  1   force =     0.00000000    0.00000000    0.00000000
     atom   93 type  1   force =     0.00000000    0.00000000    0.00000000
     atom   94 type  1   force =     0.00000000    0.00000000    0.00000000
     atom   95 type  1   force =     0.00000000    0.00000000    0.00000000
     atom   96 type  1   force =     0.00000000    0.00000000    0.00000000
     atom   97 type  1   force =     0.00000000    0.00000000    0.00000000
     atom   98 type  1   force =     0.00000000    0.00000000    0.00000000
     atom   99 type  1   force =     0.00000000    0.00000000    0.00000000
     atom  100 type  1   force =     0.00000000    0.00000000    0.00000000
     atom  101 type  1   force =     0.00000000    0.00000000    0.00000000
     atom  102 type  1   force =     0.00000000    0.00000000    0.00000000
     atom  103 type  1   force =     0.00000000    0.00000000    0.00000000
     atom  104 type  1   force =     0.00000000    0.00000000    0.00000000
     atom  105 type  1   force =     0.00000000    0.00000000    0.00000000
     atom  106 type  1   force =     0.00000000    0.00000000    0.00000000
     atom  107 type  1   force =     0.00000000    0.00000000    0.00000000
     atom  108 type  1   force =     0.00000000    0.00000000    0.00000000
     atom  109 type  1   force =     0.00000000    0.00000000    0.00000000
     atom  110 type  1   force =     0.00000000    0.00000000    0.00000000
     atom  111 type  1   force =     0.00000000    0.00000000    0.00000000
     atom  112 type  1   force =     0.00000000    0.00000000    0.00000000
     The SCF correction term to forces
     atom    1 type  1   force =    -0.00000453   -0.00000001   -0.00000105
     atom    2 type  1   force =    -0.00000451   -0.00000000   -0.00000108
     atom    3 type  1   force =    -0.00000170   -0.00000003    0.00000082
     atom    4 type  1   force =    -0.00000182    0.00000001    0.00000078
     atom    5 type  1   force =     0.00000055    0.00000002    0.00000237
     atom    6 type  1   force =     0.00000050    0.00000001    0.00000230
     atom    7 type  1   force =     0.00000442    0.00000003    0.00000149
     atom    8 type  1   force =     0.00000440   -0.00000002    0.00000151
     atom    9 type  1   force =     0.00000550    0.00000001   -0.00000036
     atom   10 type  1   force =     0.00000556    0.00000001   -0.00000037
     atom   11 type  1   force =     0.00000078   -0.00000003   -0.00000224
     atom   12 type  1   force =     0.00000081    0.00000007   -0.00000231
     atom   13 type  1   force =    -0.00000493   -0.00000004   -0.00000264
     atom   14 type  1   force =    -0.00000485    0.00000007   -0.00000266
     atom   15 type  1   force =    -0.00000520    0.00000010    0.00000175
     atom   16 type  1   force =    -0.00000516   -0.00000011    0.00000171
     atom   17 type  1   force =    -0.00000315    0.00000007    0.00000175
     atom   18 type  1   force =    -0.00000321   -0.00000009    0.00000167
     atom   19 type  1   force =     0.00000047    0.00000005    0.00000185
     atom   20 type  1   force =     0.00000041   -0.00000008    0.00000178
     atom   21 type  1   force =     0.00000523   -0.00000000    0.00000120
     atom   22 type  1   force =     0.00000523   -0.00000001    0.00000109
     atom   23 type  1   force =     0.00000583    0.00000004    0.00000179
     atom   24 type  1   force =     0.00000591   -0.00000004    0.00000173
     atom   25 type  1   force =     0.00000186    0.00000014    0.00000224
     atom   26 type  1   force =     0.00000187   -0.00000011    0.00000217
     atom   27 type  1   force =    -0.00000491    0.00000008    0.00000194
     atom   28 type  1   force =    -0.00000493   -0.00000014    0.00000192
     atom   29 type  1   force =    -0.00000301    0.00000026   -0.00000002
     atom   30 type  1   force =    -0.00000300   -0.00000024   -0.00000023
     atom   31 type  1   force =    -0.00000083    0.00000018    0.00000187
     atom   32 type  1   force =    -0.00000087   -0.00000016    0.00000167
     atom   33 type  1   force =     0.00000244    0.00000009    0.00000230
     atom   34 type  1   force =     0.00000244   -0.00000011    0.00000211
     atom   35 type  1   force =     0.00000572    0.00000008    0.00000067
     atom   36 type  1   force =     0.00000573   -0.00000008    0.00000046
     atom   37 type  1   force =     0.00000367    0.00000015   -0.00000125
     atom   38 type  1   force =     0.00000373   -0.00000016   -0.00000145
     atom   39 type  1   force =    -0.00000246    0.00000016   -0.00000271
     atom   40 type  1   force =    -0.00000244   -0.00000020   -0.00000288
     atom   41 type  1   force =    -0.00000548    0.00000025   -0.00000188
     atom   42 type  1   force =    -0.00000553   -0.00000025   -0.00000203
     atom   43 type  1   force =    -0.00000399    0.00000027    0.00000168
     atom   44 type  1   force =    -0.00000395   -0.00000024    0.00000157
     atom   45 type  1   force =    -0.00000198    0.00000024    0.00000193
     atom   46 type  1   force =    -0.00000196   -0.00000020    0.00000189
     atom   47 type  1   force =     0.00000313    0.00000016    0.00000146
     atom   48 type  1   force =     0.00000322   -0.00000017    0.00000145
     atom   49 type  1   force =     0.00000618    0.00000017    0.00000129
     atom   50 type  1   force =     0.00000615   -0.00000015    0.00000127
     atom   51 type  1   force =     0.00000450    0.00000022    0.00000213
     atom   52 type  1   force =     0.00000441   -0.00000028    0.00000216
     atom   53 type  1   force =    -0.00000173    0.00000028    0.00000203
     atom   54 type  1   force =    -0.00000172   -0.00000025    0.00000207
     atom   55 type  1   force =    -0.00000604    0.00000025    0.00000190
     atom   56 type  1   force =    -0.00000607   -0.00000021    0.00000182
     atom   57 type  1   force =    -0.00000235    0.00000013    0.00000297
     atom   58 type  1   force =    -0.00000233   -0.00000010    0.00000297
     atom   59 type  1   force =     0.00000155    0.00000012    0.00000087
     atom   60 type  1   force =     0.00000153   -0.00000008    0.00000094
     atom   61 type  1   force =     0.00000336    0.00000013   -0.00000104
     atom   62 type  1   force =     0.00000328   -0.00000011   -0.00000092
     atom   63 type  1   force =     0.00000391    0.00000013   -0.00000016
     atom   64 type  1   force =     0.00000389   -0.00000012   -0.00000012
     atom   65 type  1   force =     0.00000211    0.00000014    0.00000173
     atom   66 type  1   force =     0.00000221   -0.00000011    0.00000183
     atom   67 type  1   force =    -0.00000272    0.00000009    0.00000374
     atom   68 type  1   force =    -0.00000270   -0.00000007    0.00000388
     atom   69 type  1   force =    -0.00000583    0.00000008    0.00000445
     atom   70 type  1   force =    -0.00000584   -0.00000006    0.00000452
     atom   71 type  1   force =    -0.00000250    0.00000000    0.00000447
     atom   72 type  1   force =    -0.00000250   -0.00000003    0.00000463
     atom   73 type  1   force =    -0.00000031    0.00000005    0.00000072
     atom   74 type  1   force =    -0.00000036   -0.00000004    0.00000080
     atom   75 type  1   force =     0.00000390    0.00000005   -0.00000164
     atom   76 type  1   force =     0.00000383   -0.00000002   -0.00000149
     atom   77 type  1   force =     0.00000502    0.00000002   -0.00000100
     atom   78 type  1   force =     0.00000507   -0.00000003   -0.00000083
     atom   79 type  1   force =     0.00000255    0.00000012    0.00000165
     atom   80 type  1   force =     0.00000263   -0.00000005    0.00000174
     atom   81 type  1   force =    -0.00000296    0.00000006    0.00000543
     atom   82 type  1   force =    -0.00000297   -0.00000006    0.00000553
     atom   83 type  1   force =    -0.00000563    0.00000006    0.00000657
     atom   84 type  1   force =    -0.00000566   -0.00000006    0.00000670
     atom   85 type  1   force =    -0.00000410    0.00000019    0.00000577
     atom   86 type  1   force =    -0.00000405   -0.00000020    0.00000602
     atom   87 type  1   force =    -0.00000156    0.00000016    0.00000259
     atom   88 type  1   force =    -0.00000161   -0.00000017    0.00000284
     atom   89 type  1   force =     0.00000176    0.00000015   -0.00000093
     atom   90 type  1   force =     0.00000180   -0.00000018   -0.00000068
     atom   91 type  1   force =     0.00000501    0.00000010   -0.00000165
     atom   92 type  1   force =     0.00000504   -0.00000011   -0.00000144
     atom   93 type  1   force =     0.00000421    0.00000016    0.00000003
     atom   94 type  1   force =     0.00000411   -0.00000018    0.00000029
     atom   95 type  1   force =     0.00000014    0.00000020    0.00000355
     atom   96 type  1   force =     0.00000018   -0.00000024    0.00000377
     atom   97 type  1   force =    -0.00000536    0.00000023    0.00000646
     atom   98 type  1   force =    -0.00000538   -0.00000023    0.00000667
     atom   99 type  1   force =     0.00000001    0.00000017    0.00000193
     atom  100 type  1   force =     0.00000003   -0.00000022    0.00000206
     atom  101 type  1   force =     0.00000249    0.00000015   -0.00000034
     atom  102 type  1   force =     0.00000246   -0.00000019   -0.00000023
     atom  103 type  1   force =     0.00000381    0.00000009   -0.00000095
     atom  104 type  1   force =     0.00000382   -0.00000010   -0.00000084
     atom  105 type  1   force =     0.00000348    0.00000004    0.00000077
     atom  106 type  1   force =     0.00000347   -0.00000006    0.00000091
     atom  107 type  1   force =    -0.00000005    0.00000015    0.00000270
     atom  108 type  1   force =     0.00000001   -0.00000018    0.00000279
     atom  109 type  1   force =    -0.00000506    0.00000019    0.00000449
     atom  110 type  1   force =    -0.00000505   -0.00000019    0.00000456
     atom  111 type  1   force =    -0.00000464    0.00000018    0.00000381
     atom  112 type  1   force =    -0.00000471   -0.00000018    0.00000391

     Total force =     0.076933     Total SCF correction =     0.000049


     Computing stress (Cartesian axis) and pressure


     negative rho (up, down):  3.085E+00 0.000E+00
          total   stress  (Ry/bohr**3)                   (kbar)     P=       -7.53
  -0.00008820  -0.00000000  -0.00000000          -12.97       -0.00       -0.00
  -0.00000000  -0.00008370  -0.00000164           -0.00      -12.31       -0.24
  -0.00000000  -0.00000164   0.00001832           -0.00       -0.24        2.70

     kinetic stress (kbar)   6764.84      0.00      0.00
                                0.00   6764.92     -0.25
                                0.00     -0.25   6829.13

     local   stress (kbar)-411446.67      0.00      0.00
                                0.00-411458.15      2.57
                                0.00      2.57 440017.22

     nonloc. stress (kbar) -11040.82     -0.00      0.00
                               -0.00 -11039.83     -0.10
                                0.00     -0.10 -11088.28

     hartree stress (kbar) 211822.62     -0.00     -0.00
                               -0.00 211826.02     -0.83
                               -0.00     -0.83-209857.21

     exc-cor stress (kbar)  11588.60     -0.00     -0.00
                               -0.00  11588.63     -0.01
                               -0.00     -0.01  11584.49

     corecor stress (kbar) -14026.93     -0.00     -0.00
                               -0.00 -14026.86      0.01
                               -0.00      0.01 -14034.70

     ewald   stress (kbar) 206325.39     -0.00     -0.00
                               -0.00 206332.96     -1.63
                               -0.00     -1.63-223447.95

     hubbard stress (kbar)      0.00      0.00      0.00
                                0.00      0.00      0.00
                                0.00      0.00      0.00

     DFT-D   stress (kbar)      0.00      0.00      0.00
                                0.00      0.00      0.00
                                0.00      0.00      0.00

     XDM     stress (kbar)      0.00      0.00      0.00
                                0.00      0.00      0.00
                                0.00      0.00      0.00

     dft-nl  stress (kbar)      0.00      0.00      0.00
                                0.00      0.00      0.00
                                0.00      0.00      0.00

     TS-vdW  stress (kbar)      0.00      0.00      0.00
                                0.00      0.00      0.00
                                0.00      0.00      0.00


 
     init_run     :     72.12s CPU      7.64s WALL (       1 calls)
     electrons    :   6746.68s CPU    619.71s WALL (       1 calls)
     forces       :     29.09s CPU      2.60s WALL (       1 calls)
     stress       :    232.74s CPU     20.40s WALL (       1 calls)

     Called by init_run:
     wfcinit      :     59.90s CPU      5.77s WALL (       1 calls)
     wfcinit:atom :      0.07s CPU      0.13s WALL (       1 calls)
     wfcinit:wfcr :     57.61s CPU      5.10s WALL (       1 calls)
     potinit      :      3.10s CPU      0.27s WALL (       1 calls)
     hinit0       :      4.98s CPU      0.74s WALL (       1 calls)

     Called by electrons:
     c_bands      :   5802.36s CPU    533.60s WALL (      35 calls)
     sum_band     :    732.03s CPU     65.20s WALL (      35 calls)
     v_of_rho     :     60.74s CPU      5.46s WALL (      35 calls)
     v_h          :      4.56s CPU      0.40s WALL (      35 calls)
     v_xc         :     59.46s CPU      5.34s WALL (      37 calls)
     newd         :    128.32s CPU     13.40s WALL (      35 calls)
     mix_rho      :     18.51s CPU      1.68s WALL (      35 calls)

     Called by c_bands:
     init_us_2    :     32.21s CPU      3.34s WALL (      71 calls)
     cegterg      :   5703.28s CPU    508.06s WALL (      35 calls)

     Called by sum_band:
     sum_band:wei :      2.55s CPU      0.30s WALL (      35 calls)
     sum_band:loo :    585.75s CPU     51.32s WALL (      35 calls)
     sum_band:buf :      0.00s CPU      0.00s WALL (      35 calls)
     sum_band:ini :     12.71s CPU      1.57s WALL (      35 calls)
     sum_band:cal :    133.47s CPU     11.21s WALL (      35 calls)
     sum_band:bec :      3.20s CPU      0.28s WALL (      35 calls)
     addusdens    :    104.85s CPU     10.04s WALL (      35 calls)
     addusd:skk   :      2.76s CPU      0.70s WALL (      35 calls)
     addusd:dgemm :      8.16s CPU      0.94s WALL (      35 calls)
     addusd:qvan2 :     64.04s CPU      5.66s WALL (      35 calls)

     Called by *egterg:
     cdiaghg      :   2024.27s CPU    190.82s WALL (     186 calls)
     cegterg:over :    436.82s CPU     37.28s WALL (     152 calls)
     cegterg:upda :    195.80s CPU     16.76s WALL (     152 calls)
     cegterg:last :    403.10s CPU     33.78s WALL (      60 calls)
     cdiaghg:chol :     81.47s CPU      7.12s WALL (     186 calls)
     cdiaghg:inve :     26.13s CPU      2.27s WALL (     186 calls)
     cdiaghg:para :    162.84s CPU     14.34s WALL (     372 calls)
     h_psi        :   2258.97s CPU    196.42s WALL (     188 calls)
     s_psi        :    267.02s CPU     22.37s WALL (     188 calls)
     g_psi        :      2.84s CPU      0.28s WALL (     152 calls)

     Called by h_psi:
     h_psi:calbec :    303.79s CPU     25.60s WALL (     188 calls)
     vloc_psi     :   1683.12s CPU    147.64s WALL (     188 calls)
     add_vuspsi   :    268.33s CPU     22.46s WALL (     188 calls)

     General routines
     calbec       :    455.83s CPU     38.36s WALL (     228 calls)
     fft          :     45.36s CPU      4.18s WALL (     479 calls)
     ffts         :      2.58s CPU      0.24s WALL (      70 calls)
     fftw         :   2098.12s CPU    178.37s WALL (  153364 calls)
     interpolate  :      4.79s CPU      0.43s WALL (      35 calls)
 
     Parallel routines
 
     PWSCF        :      1h58m CPU  10m50.94s WALL

 
   This run was terminated on:   9:45: 3  19Mar2021            

=------------------------------------------------------------------------------=
   JOB DONE.
=------------------------------------------------------------------------------=


Batch Job Summary Report (version 21.01.1) for Job "rfm_qe_Au_surf_scf_native__2__8__job" (30004888) on daint

Job information (1/2)
-----------------------------------------------------------------------------------------------------
             Submit            Eligible               Start                 End    Elapsed Time limit
------------------- ------------------- ------------------- ------------------- ---------- ----------
2021-03-19T09:32:39 2021-03-19T09:32:39 2021-03-19T09:34:04 2021-03-19T09:45:04   00:11:00   00:20:00
-----------------------------------------------------------------------------------------------------

Job information (2/2)
-------------------------------------------------------------
    Username      Account    Partition   NNodes        Energy
------------ ------------ ------------ -------- -------------
      antonk      csstaff       normal       16   1624.723 kJ

