
     Program PWSCF v.6.4.1 starts on  8Apr2020 at 11:43:44 

     This program is part of the open-source Quantum ESPRESSO suite
     for quantum simulation of materials; please cite
         "P. Giannozzi et al., J. Phys.:Condens. Matter 21 395502 (2009);
         "P. Giannozzi et al., J. Phys.:Condens. Matter 29 465901 (2017);
          URL http://www.quantum-espresso.org", 
     in publications or presentations arising from this work. More details at
     http://www.quantum-espresso.org/quote

     Parallel version (MPI & OpenMP), running on      12 processor cores
     Number of MPI processes:                 1
     Threads/MPI process:                    12

     MPI processes distributed on     1 nodes
     Reading input from pw.in
     Message from routine read_cards :
     DEPRECATED: no units specified in CELL_PARAMETERS card

     Current dimensions of program PWSCF are:
     Max number of different atomic species (ntypx) = 10
     Max number of k-points (npk) =  40000
     Max angular momentum in pseudopotentials (lmaxx) =  3
     Message from routine volume:
     axis vectors are left-handed
     Message from routine read_upf::
     Pseudo file O.pbe-n-kjpaw_psl.0.1.UPF has been fixed on the fly.
To avoid this message in the future, permanently fix 
 your pseudo files following these instructions: 
https://gitlab.com/QEF/q-e/blob/master/upftools/how_to_fix_upf.md
               file O.pbe-n-kjpaw_psl.0.1.UPF: wavefunction(s)  2P renormalized

     Subspace diagonalization in iterative solution of the eigenvalue problem:
     a serial algorithm will be used

     Message from routine setup:
     DEPRECATED: symmetry with ibrav=0, use correct ibrav instead
 
     G-vector sticks info
     --------------------
     sticks:   dense  smooth     PW     G-vecs:    dense   smooth      PW
     Sum        2477     667    227                61859     8593    1701
 


     bravais-lattice index     =            0
     lattice parameter (alat)  =       7.9300  a.u.
     unit-cell volume          =     249.3386 (a.u.)^3
     number of atoms/cell      =            4
     number of atomic types    =            3
     number of electrons       =        48.00
     number of Kohn-Sham states=           29
     kinetic-energy cutoff     =      40.0000  Ry
     charge density cutoff     =     600.0000  Ry
     convergence threshold     =      1.0E-11
     mixing beta               =       0.3000
     number of iterations used =            8  plain     mixing
     Exchange-correlation      = SLA PW PBX PBC ( 1  4  3  4 0 0)

     celldm(1)=   7.930000  celldm(2)=   0.000000  celldm(3)=   0.000000
     celldm(4)=   0.000000  celldm(5)=   0.000000  celldm(6)=   0.000000

     crystal axes: (cart. coord. in units of alat)
               a(1) = (   0.500000   0.500000   1.000000 )  
               a(2) = (   0.500000   1.000000   0.500000 )  
               a(3) = (   1.000000   0.500000   0.500000 )  

     reciprocal axes: (cart. coord. in units 2 pi/alat)
               b(1) = ( -0.500000 -0.500000  1.500000 )  
               b(2) = ( -0.500000  1.500000 -0.500000 )  
               b(3) = (  1.500000 -0.500000 -0.500000 )  


     PseudoPot. # 1 for Ni read from file:
     ./ni_pbe_v1.4.uspp.F.UPF
     MD5 check sum: 1ee80287db30b12d2bc1f57a5b5d6409
     Pseudo is Ultrasoft + core correction, Zval = 18.0
     Generated by new atomic code, or converted to UPF format
     Using radial grid of  865 points,  6 beta functions with: 
                l(1) =   0
                l(2) =   0
                l(3) =   1
                l(4) =   1
                l(5) =   2
                l(6) =   2
     Q(r) pseudized with 10 coefficients,  rinner =    0.980   0.980   0.980
                                                       0.980   0.980

     PseudoPot. # 2 for Ni read from file:
     ./ni_pbe_v1.4.uspp.F.UPF
     MD5 check sum: 1ee80287db30b12d2bc1f57a5b5d6409
     Pseudo is Ultrasoft + core correction, Zval = 18.0
     Generated by new atomic code, or converted to UPF format
     Using radial grid of  865 points,  6 beta functions with: 
                l(1) =   0
                l(2) =   0
                l(3) =   1
                l(4) =   1
                l(5) =   2
                l(6) =   2
     Q(r) pseudized with 10 coefficients,  rinner =    0.980   0.980   0.980
                                                       0.980   0.980

     PseudoPot. # 3 for O  read from file:
     ./O.pbe-n-kjpaw_psl.0.1.UPF
     MD5 check sum: 3f94a2996a3169367d6eb21d9b593f20
     Pseudo is Projector augmented-wave + core cor, Zval =  6.0
     Generated using "atomic" code by A. Dal Corso v.5.0.99 svn rev. 10869
     Shape of augmentation charge: BESSEL
     Using radial grid of 1095 points,  4 beta functions with: 
                l(1) =   0
                l(2) =   0
                l(3) =   1
                l(4) =   1
     Q(r) pseudized with 0 coefficients 


     atomic species   valence    mass     pseudopotential
        Ni1           18.00     1.00000     Ni( 1.00)
        Ni2           18.00     1.00000     Ni( 1.00)
        O              6.00     1.00000     O ( 1.00)

     Starting magnetic structure 
     atomic species   magnetization
        Ni1          1.000
        Ni2         -1.000
        O            0.000

     12 Sym. Ops., with inversion, found


                                    s                        frac. trans.

      isym =  1     identity                                     

 cryst.   s( 1) = (     1          0          0      )
                  (     0          1          0      )
                  (     0          0          1      )

 cart.    s( 1) = (  1.0000000  0.0000000  0.0000000 )
                  (  0.0000000  1.0000000  0.0000000 )
                  (  0.0000000  0.0000000  1.0000000 )


      isym =  2     180 deg rotation - cart. axis [1,-1,0]       

 cryst.   s( 2) = (    -1          0          0      )
                  (     0          0         -1      )
                  (     0         -1          0      )

 cart.    s( 2) = (  0.0000000 -1.0000000  0.0000000 )
                  ( -1.0000000  0.0000000  0.0000000 )
                  (  0.0000000  0.0000000 -1.0000000 )


      isym =  3     180 deg rotation - cart. axis [-1,0,1]       

 cryst.   s( 3) = (     0          0         -1      )
                  (     0         -1          0      )
                  (    -1          0          0      )

 cart.    s( 3) = (  0.0000000  0.0000000 -1.0000000 )
                  (  0.0000000 -1.0000000  0.0000000 )
                  ( -1.0000000  0.0000000  0.0000000 )


      isym =  4     180 deg rotation - cart. axis [0,1,-1]       

 cryst.   s( 4) = (     0         -1          0      )
                  (    -1          0          0      )
                  (     0          0         -1      )

 cart.    s( 4) = ( -1.0000000  0.0000000  0.0000000 )
                  (  0.0000000  0.0000000 -1.0000000 )
                  (  0.0000000 -1.0000000  0.0000000 )


      isym =  5     120 deg rotation - cart. axis [-1,-1,-1]     

 cryst.   s( 5) = (     0          1          0      )
                  (     0          0          1      )
                  (     1          0          0      )

 cart.    s( 5) = (  0.0000000  1.0000000  0.0000000 )
                  (  0.0000000  0.0000000  1.0000000 )
                  (  1.0000000  0.0000000  0.0000000 )


      isym =  6     120 deg rotation - cart. axis [1,1,1]        

 cryst.   s( 6) = (     0          0          1      )
                  (     1          0          0      )
                  (     0          1          0      )

 cart.    s( 6) = (  0.0000000  0.0000000  1.0000000 )
                  (  1.0000000  0.0000000  0.0000000 )
                  (  0.0000000  1.0000000  0.0000000 )


      isym =  7     inversion                                    

 cryst.   s( 7) = (    -1          0          0      )
                  (     0         -1          0      )
                  (     0          0         -1      )

 cart.    s( 7) = ( -1.0000000  0.0000000  0.0000000 )
                  (  0.0000000 -1.0000000  0.0000000 )
                  (  0.0000000  0.0000000 -1.0000000 )


      isym =  8     inv. 180 deg rotation - cart. axis [1,-1,0]  

 cryst.   s( 8) = (     1          0          0      )
                  (     0          0          1      )
                  (     0          1          0      )

 cart.    s( 8) = (  0.0000000  1.0000000  0.0000000 )
                  (  1.0000000  0.0000000  0.0000000 )
                  (  0.0000000  0.0000000  1.0000000 )


      isym =  9     inv. 180 deg rotation - cart. axis [-1,0,1]  

 cryst.   s( 9) = (     0          0          1      )
                  (     0          1          0      )
                  (     1          0          0      )

 cart.    s( 9) = (  0.0000000  0.0000000  1.0000000 )
                  (  0.0000000  1.0000000  0.0000000 )
                  (  1.0000000  0.0000000  0.0000000 )


      isym = 10     inv. 180 deg rotation - cart. axis [0,1,-1]  

 cryst.   s(10) = (     0          1          0      )
                  (     1          0          0      )
                  (     0          0          1      )

 cart.    s(10) = (  1.0000000  0.0000000  0.0000000 )
                  (  0.0000000  0.0000000  1.0000000 )
                  (  0.0000000  1.0000000  0.0000000 )


      isym = 11     inv. 120 deg rotation - cart. axis [-1,-1,-1]

 cryst.   s(11) = (     0         -1          0      )
                  (     0          0         -1      )
                  (    -1          0          0      )

 cart.    s(11) = (  0.0000000 -1.0000000  0.0000000 )
                  (  0.0000000  0.0000000 -1.0000000 )
                  ( -1.0000000  0.0000000  0.0000000 )


      isym = 12     inv. 120 deg rotation - cart. axis [1,1,1]   

 cryst.   s(12) = (     0          0         -1      )
                  (    -1          0          0      )
                  (     0         -1          0      )

 cart.    s(12) = (  0.0000000  0.0000000 -1.0000000 )
                  ( -1.0000000  0.0000000  0.0000000 )
                  (  0.0000000 -1.0000000  0.0000000 )


   Cartesian axes

     site n.     atom                  positions (alat units)
         1           Ni1 tau(   1) = (   0.0000000   0.0000000   0.0000000  )
         2           Ni2 tau(   2) = (   1.0000000   1.0000000   1.0000000  )
         3           O   tau(   3) = (   0.5000000   0.5000000   0.5000000  )
         4           O   tau(   4) = (   1.5000000   1.5000000   1.5000000  )

   Crystallographic axes

     site n.     atom                  positions (cryst. coord.)
         1           Ni1 tau(   1) = (  0.0000000  0.0000000  0.0000000  )
         2           Ni2 tau(   2) = (  0.5000000  0.5000000  0.5000000  )
         3           O   tau(   3) = (  0.2500000  0.2500000  0.2500000  )
         4           O   tau(   4) = (  0.7500000  0.7500000  0.7500000  )

     number of k points=    13  gaussian smearing, width (Ry)=  0.0200
                       cart. coord. in units 2pi/alat
        k(    1) = (   0.0000000   0.0000000   0.0000000), wk =   0.0156250
        k(    2) = (   0.3750000  -0.1250000  -0.1250000), wk =   0.0937500
        k(    3) = (  -0.7500000   0.2500000   0.2500000), wk =   0.0468750
        k(    4) = (   0.2500000   0.2500000  -0.2500000), wk =   0.0937500
        k(    5) = (  -0.8750000   0.6250000   0.1250000), wk =   0.1875000
        k(    6) = (  -0.5000000   0.5000000   0.0000000), wk =   0.0937500
        k(    7) = (  -0.5000000  -0.5000000   0.5000000), wk =   0.0468750
        k(    8) = (   0.1250000   0.1250000   0.1250000), wk =   0.0312500
        k(    9) = (  -1.0000000   0.5000000   0.5000000), wk =   0.0937500
        k(   10) = (  -0.6250000   0.3750000   0.3750000), wk =   0.0937500
        k(   11) = (  -0.6250000  -0.6250000   0.8750000), wk =   0.0937500
        k(   12) = (  -0.2500000  -0.7500000   0.7500000), wk =   0.0937500
        k(   13) = (  -0.2500000  -0.2500000  -0.2500000), wk =   0.0156250

                       cryst. coord.
        k(    1) = (   0.0000000   0.0000000   0.0000000), wk =   0.0156250
        k(    2) = (   0.0000000   0.0000000   0.2500000), wk =   0.0937500
        k(    3) = (   0.0000000   0.0000000  -0.5000000), wk =   0.0468750
        k(    4) = (   0.0000000   0.2500000   0.2500000), wk =   0.0937500
        k(    5) = (   0.0000000   0.2500000  -0.5000000), wk =   0.1875000
        k(    6) = (   0.0000000   0.2500000  -0.2500000), wk =   0.0937500
        k(    7) = (   0.0000000  -0.5000000  -0.5000000), wk =   0.0468750
        k(    8) = (   0.2500000   0.2500000   0.2500000), wk =   0.0312500
        k(    9) = (   0.2500000   0.2500000  -0.5000000), wk =   0.0937500
        k(   10) = (   0.2500000   0.2500000  -0.2500000), wk =   0.0937500
        k(   11) = (   0.2500000  -0.5000000  -0.5000000), wk =   0.0937500
        k(   12) = (   0.2500000  -0.5000000  -0.2500000), wk =   0.0937500
        k(   13) = (  -0.5000000  -0.5000000  -0.5000000), wk =   0.0156250

     Dense  grid:    61859 G-vectors     FFT dimensions: (  75,  75,  75)

     Smooth grid:     8593 G-vectors     FFT dimensions: (  40,  40,  40)

     Dynamical RAM for                 wfc:       0.47 MB

     Dynamical RAM for     wfc (w. buffer):      12.72 MB

     Dynamical RAM for           str. fact:       2.83 MB

     Dynamical RAM for           local pot:       0.00 MB

     Dynamical RAM for          nlocal pot:       0.85 MB

     Dynamical RAM for                qrad:       7.44 MB

     Dynamical RAM for          rho,v,vnew:      24.98 MB

     Dynamical RAM for               rhoin:       8.33 MB

     Dynamical RAM for            rho*nmix:      30.20 MB

     Dynamical RAM for           G-vectors:       3.61 MB

     Dynamical RAM for          h,s,v(r/c):       0.62 MB

     Dynamical RAM for          <psi|beta>:       0.02 MB

     Dynamical RAM for                 psi:       1.89 MB

     Dynamical RAM for                hpsi:       1.89 MB

     Dynamical RAM for                spsi:       1.89 MB

     Dynamical RAM for      wfcinit/wfcrot:       1.13 MB

     Dynamical RAM for           addusdens:     178.40 MB

     Dynamical RAM for          addusforce:     185.98 MB

     Dynamical RAM for         addusstress:     191.14 MB

     Estimated static dynamical RAM per process >     114.04 MB

     Estimated max dynamical RAM per process >     305.18 MB
     Generating pointlists ...
     new r_m :   0.2063 (alat units)  1.6356 (a.u.) for type    1
     new r_m :   0.2063 (alat units)  1.6356 (a.u.) for type    2
     new r_m :   0.2063 (alat units)  1.6356 (a.u.) for type    3

     Check: negative core charge=   -0.000009

     Initial potential from superposition of free atoms

     starting charge   44.00000, renormalised to   48.00000
     Starting wfcs are   34 randomized atomic wfcs
     Checking if some PAW data can be deallocated... 

     total cpu time spent up to now is       52.0 secs

     Self-consistent Calculation

     iteration #  1     ecut=    40.00 Ry     beta= 0.30
     Davidson diagonalization with overlap
     ethr =  1.00E-02,  avg # of iterations =  4.2

     total cpu time spent up to now is       57.7 secs

     total energy              =    -752.59238442 Ry
     Harris-Foulkes estimate   =    -768.28249192 Ry
     estimated scf accuracy    <      70.00845950 Ry

     total magnetization       =     0.00 Bohr mag/cell
     absolute magnetization    =     9.72 Bohr mag/cell

     iteration #  2     ecut=    40.00 Ry     beta= 0.30
     Davidson diagonalization with overlap
     ethr =  1.00E-02,  avg # of iterations =  3.8

     total cpu time spent up to now is       63.6 secs

     total energy              =    -765.40655045 Ry
     Harris-Foulkes estimate   =    -763.63853129 Ry
     estimated scf accuracy    <      17.01318209 Ry

     total magnetization       =     0.00 Bohr mag/cell
     absolute magnetization    =     4.18 Bohr mag/cell

     iteration #  3     ecut=    40.00 Ry     beta= 0.30
     Davidson diagonalization with overlap
     ethr =  1.00E-02,  avg # of iterations =  2.2

     total cpu time spent up to now is       67.8 secs

     total energy              =    -769.05262140 Ry
     Harris-Foulkes estimate   =    -766.16819548 Ry
     estimated scf accuracy    <       6.32535430 Ry

     total magnetization       =    -0.00 Bohr mag/cell
     absolute magnetization    =     5.10 Bohr mag/cell

     iteration #  4     ecut=    40.00 Ry     beta= 0.30
     Davidson diagonalization with overlap
     ethr =  1.00E-02,  avg # of iterations =  1.9

     total cpu time spent up to now is       71.7 secs

     total energy              =    -769.62091938 Ry
     Harris-Foulkes estimate   =    -769.32018460 Ry
     estimated scf accuracy    <       1.33238238 Ry

     total magnetization       =     0.00 Bohr mag/cell
     absolute magnetization    =     3.77 Bohr mag/cell

     iteration #  5     ecut=    40.00 Ry     beta= 0.30
     Davidson diagonalization with overlap
     ethr =  2.78E-03,  avg # of iterations =  2.2

     total cpu time spent up to now is       76.0 secs

     total energy              =    -769.70898194 Ry
     Harris-Foulkes estimate   =    -769.78824511 Ry
     estimated scf accuracy    <       0.15768437 Ry

     total magnetization       =    -0.00 Bohr mag/cell
     absolute magnetization    =     3.16 Bohr mag/cell

     iteration #  6     ecut=    40.00 Ry     beta= 0.30
     Davidson diagonalization with overlap
     ethr =  3.29E-04,  avg # of iterations =  2.8

     total cpu time spent up to now is       80.9 secs

     total energy              =    -769.74225956 Ry
     Harris-Foulkes estimate   =    -769.80053887 Ry
     estimated scf accuracy    <       0.24115089 Ry

     total magnetization       =     0.00 Bohr mag/cell
     absolute magnetization    =     2.82 Bohr mag/cell

     iteration #  7     ecut=    40.00 Ry     beta= 0.30
     Davidson diagonalization with overlap
     ethr =  3.29E-04,  avg # of iterations =  2.0

     total cpu time spent up to now is       85.0 secs

     total energy              =    -769.76772368 Ry
     Harris-Foulkes estimate   =    -769.76834452 Ry
     estimated scf accuracy    <       0.00348940 Ry

     total magnetization       =    -0.01 Bohr mag/cell
     absolute magnetization    =     3.05 Bohr mag/cell

     iteration #  8     ecut=    40.00 Ry     beta= 0.30
     Davidson diagonalization with overlap
     ethr =  7.27E-06,  avg # of iterations =  2.3

     total cpu time spent up to now is       89.2 secs

     total energy              =    -769.76826404 Ry
     Harris-Foulkes estimate   =    -769.76835511 Ry
     estimated scf accuracy    <       0.00170994 Ry

     total magnetization       =     0.01 Bohr mag/cell
     absolute magnetization    =     3.05 Bohr mag/cell

     iteration #  9     ecut=    40.00 Ry     beta= 0.30
     Davidson diagonalization with overlap
     ethr =  3.56E-06,  avg # of iterations =  1.4

     total cpu time spent up to now is       93.0 secs

     total energy              =    -769.76803096 Ry
     Harris-Foulkes estimate   =    -769.76844041 Ry
     estimated scf accuracy    <       0.00124811 Ry

     total magnetization       =    -0.00 Bohr mag/cell
     absolute magnetization    =     3.04 Bohr mag/cell

     iteration # 10     ecut=    40.00 Ry     beta= 0.30
     Davidson diagonalization with overlap
     ethr =  2.60E-06,  avg # of iterations =  2.4

     total cpu time spent up to now is       97.5 secs

     total energy              =    -769.76838329 Ry
     Harris-Foulkes estimate   =    -769.76847717 Ry
     estimated scf accuracy    <       0.00043355 Ry

     total magnetization       =    -0.00 Bohr mag/cell
     absolute magnetization    =     3.06 Bohr mag/cell

     iteration # 11     ecut=    40.00 Ry     beta= 0.30
     Davidson diagonalization with overlap
     ethr =  9.03E-07,  avg # of iterations =  2.0

     total cpu time spent up to now is      101.5 secs

     total energy              =    -769.76840549 Ry
     Harris-Foulkes estimate   =    -769.76841475 Ry
     estimated scf accuracy    <       0.00004187 Ry

     total magnetization       =    -0.00 Bohr mag/cell
     absolute magnetization    =     3.05 Bohr mag/cell

     iteration # 12     ecut=    40.00 Ry     beta= 0.30
     Davidson diagonalization with overlap
     ethr =  8.72E-08,  avg # of iterations =  2.0

     total cpu time spent up to now is      105.7 secs

     total energy              =    -769.76841587 Ry
     Harris-Foulkes estimate   =    -769.76841395 Ry
     estimated scf accuracy    <       0.00000121 Ry

     total magnetization       =    -0.00 Bohr mag/cell
     absolute magnetization    =     3.05 Bohr mag/cell

     iteration # 13     ecut=    40.00 Ry     beta= 0.30
     Davidson diagonalization with overlap
     ethr =  2.51E-09,  avg # of iterations =  1.3

     total cpu time spent up to now is      109.6 secs

     total energy              =    -769.76841684 Ry
     Harris-Foulkes estimate   =    -769.76841595 Ry
     estimated scf accuracy    <       0.00000042 Ry

     total magnetization       =    -0.00 Bohr mag/cell
     absolute magnetization    =     3.05 Bohr mag/cell

     iteration # 14     ecut=    40.00 Ry     beta= 0.30
     Davidson diagonalization with overlap
     ethr =  8.84E-10,  avg # of iterations =  1.8

     total cpu time spent up to now is      113.5 secs

     total energy              =    -769.76841733 Ry
     Harris-Foulkes estimate   =    -769.76841688 Ry
     estimated scf accuracy    <       0.00000005 Ry

     total magnetization       =    -0.00 Bohr mag/cell
     absolute magnetization    =     3.05 Bohr mag/cell

     iteration # 15     ecut=    40.00 Ry     beta= 0.30
     Davidson diagonalization with overlap
     ethr =  1.01E-10,  avg # of iterations =  2.0

     total cpu time spent up to now is      117.5 secs

     total energy              =    -769.76841758 Ry
     Harris-Foulkes estimate   =    -769.76841734 Ry
     estimated scf accuracy    <          1.4E-09 Ry

     total magnetization       =    -0.00 Bohr mag/cell
     absolute magnetization    =     3.05 Bohr mag/cell

     iteration # 16     ecut=    40.00 Ry     beta= 0.30
     Davidson diagonalization with overlap
     ethr =  2.88E-12,  avg # of iterations =  2.0

     total cpu time spent up to now is      122.0 secs

     total energy              =    -769.76841769 Ry
     Harris-Foulkes estimate   =    -769.76841758 Ry
     estimated scf accuracy    <          1.3E-10 Ry

     total magnetization       =    -0.00 Bohr mag/cell
     absolute magnetization    =     3.05 Bohr mag/cell

     iteration # 17     ecut=    40.00 Ry     beta= 0.30
     Davidson diagonalization with overlap
     ethr =  2.68E-13,  avg # of iterations =  2.0

     total cpu time spent up to now is      126.5 secs

     total energy              =    -769.76841775 Ry
     Harris-Foulkes estimate   =    -769.76841769 Ry
     estimated scf accuracy    <          2.6E-11 Ry

     total magnetization       =     0.00 Bohr mag/cell
     absolute magnetization    =     3.05 Bohr mag/cell

     iteration # 18     ecut=    40.00 Ry     beta= 0.30
     Davidson diagonalization with overlap
     ethr =  1.00E-13,  avg # of iterations =  2.0

     total cpu time spent up to now is      131.0 secs

     total energy              =    -769.76841778 Ry
     Harris-Foulkes estimate   =    -769.76841775 Ry
     estimated scf accuracy    <          3.0E-11 Ry

     total magnetization       =    -0.00 Bohr mag/cell
     absolute magnetization    =     3.05 Bohr mag/cell

     iteration # 19     ecut=    40.00 Ry     beta= 0.30
     Davidson diagonalization with overlap
     ethr =  1.00E-13,  avg # of iterations =  2.0
 
     Magnetic moment per site:
     atom:    1    charge:   15.6949    magn:    1.3725    constr:    0.0000
     atom:    2    charge:   15.6949    magn:   -1.3725    constr:    0.0000
     atom:    3    charge:    5.6781    magn:    0.0000    constr:    0.0000
     atom:    4    charge:    5.6781    magn:    0.0000    constr:    0.0000

     total cpu time spent up to now is      135.2 secs

     End of self-consistent calculation

 ------ SPIN UP ------------


          k = 0.0000 0.0000 0.0000 (  1075 PWs)   bands (ev):

   -90.4217 -88.5061 -50.8203 -50.7911 -50.7911 -48.9583 -48.9408 -48.9408
    -6.1626  -4.8019   5.9805   8.5789   8.5789  11.1569  11.1569  11.1585
    11.5405  11.5405  11.6412  11.9892  11.9892  12.9355  12.9355  13.1943
    15.4382  15.4382  15.5142  19.5652  23.9702

     occupation numbers 
     1.0000   1.0000   1.0000   1.0000   1.0000   1.0000   1.0000   1.0000
     1.0000   1.0000   1.0000   1.0000   1.0000   1.0000   1.0000   1.0000
     1.0000   1.0000   1.0000   1.0000   1.0000   1.0000   1.0000   1.0000
     0.0000   0.0000   0.0000   0.0000   0.0000

          k = 0.3750-0.1250-0.1250 (  1070 PWs)   bands (ev):

   -90.4209 -88.5051 -50.8187 -50.8016 -50.7937 -48.9567 -48.9525 -48.9437
    -5.5958  -4.7133   6.9170   8.1189   8.2719   8.7199   9.7115   9.9423
    11.5217  12.0327  12.1619  12.5164  12.6907  12.9570  13.2803  13.3082
    14.6289  15.1240  18.4698  22.2351  23.2416

     occupation numbers 
     1.0000   1.0000   1.0000   1.0000   1.0000   1.0000   1.0000   1.0000
     1.0000   1.0000   1.0000   1.0000   1.0000   1.0000   1.0000   1.0000
     1.0000   1.0000   1.0000   1.0000   1.0000   1.0000   0.9997   0.9995
     0.0002   0.0000   0.0000   0.0000   0.0000

          k =-0.7500 0.2500 0.2500 (  1076 PWs)   bands (ev):

   -90.4201 -88.5042 -50.8175 -50.8121 -50.7964 -48.9644 -48.9552 -48.9467
    -4.7855  -4.7710   6.9619   7.0528   8.2687   8.6196   8.8243   9.3716
    11.4702  12.1045  12.4172  12.4846  12.9847  13.1543  13.3081  13.4585
    14.8783  14.8938  21.4013  21.5584  23.6842

     occupation numbers 
     1.0000   1.0000   1.0000   1.0000   1.0000   1.0000   1.0000   1.0000
     1.0000   1.0000   1.0000   1.0000   1.0000   1.0000   1.0000   1.0000
     1.0000   1.0000   1.0000   1.0000   1.0000   1.0000   0.9995   0.9943
     0.0000   0.0000   0.0000   0.0000   0.0000

          k = 0.2500 0.2500-0.2500 (  1081 PWs)   bands (ev):

   -90.4209 -88.5051 -50.8188 -50.8017 -50.7938 -48.9567 -48.9526 -48.9437
    -5.5418  -4.7783   7.0077   8.0176   8.3918   8.9364   9.4749   9.5734
    11.6001  11.9607  12.0841  12.6922  12.7519  13.0434  13.3633  13.5044
    14.8741  14.8931  18.2514  21.4811  23.7517

     occupation numbers 
     1.0000   1.0000   1.0000   1.0000   1.0000   1.0000   1.0000   1.0000
     1.0000   1.0000   1.0000   1.0000   1.0000   1.0000   1.0000   1.0000
     1.0000   1.0000   1.0000   1.0000   1.0000   1.0000   0.9987   0.9890
     0.0000   0.0000   0.0000   0.0000   0.0000

          k =-0.8750 0.6250 0.1250 (  1060 PWs)   bands (ev):

   -90.4201 -88.5042 -50.8172 -50.8081 -50.8003 -48.9599 -48.9550 -48.9511
    -4.8829  -4.6760   6.9272   7.4448   8.2035   8.5761   8.8179   8.9894
    11.8674  12.0247  12.1911  12.6222  12.7539  13.1577  13.2546  13.4107
    14.7208  15.1885  21.1307  22.1672  23.9400

     occupation numbers 
     1.0000   1.0000   1.0000   1.0000   1.0000   1.0000   1.0000   1.0000
     1.0000   1.0000   1.0000   1.0000   1.0000   1.0000   1.0000   1.0000
     1.0000   1.0000   1.0000   1.0000   1.0000   1.0000   0.9998   0.9972
     0.0000   0.0000   0.0000   0.0000   0.0000

          k =-0.5000 0.5000 0.0000 (  1064 PWs)   bands (ev):

   -90.4201 -88.5042 -50.8173 -50.8082 -50.8004 -48.9599 -48.9551 -48.9512
    -4.9269  -4.6344   6.9879   8.0380   8.0416   8.3922   8.6671   8.7313
    11.9582  12.1442  12.2647  12.5026  12.6681  12.9643  13.2534  13.4007
    14.5622  15.4789  21.0190  22.5130  24.6528

     occupation numbers 
     1.0000   1.0000   1.0000   1.0000   1.0000   1.0000   1.0000   1.0000
     1.0000   1.0000   1.0000   1.0000   1.0000   1.0000   1.0000   1.0000
     1.0000   1.0000   1.0000   1.0000   1.0000   1.0000   0.9998   0.9977
     0.0007   0.0000   0.0000   0.0000   0.0000

          k =-0.5000-0.5000 0.5000 (  1068 PWs)   bands (ev):

   -90.4201 -88.5042 -50.8173 -50.8121 -50.7964 -48.9643 -48.9550 -48.9467
    -4.8017  -4.7412   5.9796   7.2663   8.5846   8.6033   9.8675   9.8683
    10.7958  12.0284  12.2489  12.4795  12.6378  13.0588  13.3238  13.4383
    15.4854  15.5491  19.5673  20.1698  23.9709

     occupation numbers 
     1.0000   1.0000   1.0000   1.0000   1.0000   1.0000   1.0000   1.0000
     1.0000   1.0000   1.0000   1.0000   1.0000   1.0000   1.0000   1.0000
     1.0000   1.0000   1.0000   1.0000   1.0000   1.0000   0.9994   0.9958
     0.0000   0.0000   0.0000   0.0000   0.0000

          k = 0.1250 0.1250 0.1250 (  1068 PWs)   bands (ev):

   -90.4217 -88.5060 -50.8201 -50.7911 -50.7911 -48.9582 -48.9407 -48.9407
    -5.9903  -5.0347   6.5497   8.7618   8.7618   9.8817  10.4089  10.4089
    11.5880  11.5880  11.9205  12.7009  12.7009  12.9325  12.9325  13.0562
    15.2110  15.2110  16.5314  19.3632  24.3939

     occupation numbers 
     1.0000   1.0000   1.0000   1.0000   1.0000   1.0000   1.0000   1.0000
     1.0000   1.0000   1.0000   1.0000   1.0000   1.0000   1.0000   1.0000
     1.0000   1.0000   1.0000   1.0000   1.0000   1.0000   1.0000   1.0000
     0.0000   0.0000   0.0000   0.0000   0.0000

          k =-1.0000 0.5000 0.5000 (  1068 PWs)   bands (ev):

   -90.4209 -88.5051 -50.8187 -50.8015 -50.7937 -48.9566 -48.9525 -48.9437
    -5.4096  -4.9270   6.9825   7.7367   8.6601   8.7111  10.0736  10.0833
    11.2065  12.0933  12.1658  12.1858  12.4831  13.0231  13.1913  13.3779
    14.2873  15.4008  19.4488  21.0192  24.9084

     occupation numbers 
     1.0000   1.0000   1.0000   1.0000   1.0000   1.0000   1.0000   1.0000
     1.0000   1.0000   1.0000   1.0000   1.0000   1.0000   1.0000   1.0000
     1.0000   1.0000   1.0000   1.0000   1.0000   1.0000   1.0000   0.9984
     0.0376   0.0000   0.0000   0.0000   0.0000

          k =-0.6250 0.3750 0.3750 (  1065 PWs)   bands (ev):

   -90.4201 -88.5042 -50.8173 -50.8121 -50.7964 -48.9643 -48.9550 -48.9467
    -4.7969  -4.7528   6.2949   7.2892   8.4981   8.6793   9.1399   9.6334
    11.2191  12.0810  12.2966  12.6108  12.7762  13.0004  13.3173  13.4508
    15.2006  15.2178  20.4460  20.7198  23.7819

     occupation numbers 
     1.0000   1.0000   1.0000   1.0000   1.0000   1.0000   1.0000   1.0000
     1.0000   1.0000   1.0000   1.0000   1.0000   1.0000   1.0000   1.0000
     1.0000   1.0000   1.0000   1.0000   1.0000   1.0000   0.9994   0.9949
     0.0000   0.0000   0.0000   0.0000   0.0000

          k =-0.6250-0.6250 0.8750 (  1070 PWs)   bands (ev):

   -90.4209 -88.5051 -50.8186 -50.8016 -50.7937 -48.9566 -48.9525 -48.9437
    -5.2726  -5.0749   7.2187   7.4277   8.9091   9.1370   9.4362   9.6985
    11.3510  11.9692  12.0932  12.5269  12.7223  12.9730  13.3177  13.3222
    14.5718  15.2206  19.3728  20.4481  25.1757

     occupation numbers 
     1.0000   1.0000   1.0000   1.0000   1.0000   1.0000   1.0000   1.0000
     1.0000   1.0000   1.0000   1.0000   1.0000   1.0000   1.0000   1.0000
     1.0000   1.0000   1.0000   1.0000   1.0000   1.0000   0.9994   0.9994
     0.0006   0.0000   0.0000   0.0000   0.0000

          k =-0.2500-0.7500 0.7500 (  1076 PWs)   bands (ev):

   -90.4201 -88.5042 -50.8173 -50.8082 -50.8005 -48.9600 -48.9551 -48.9512
    -4.7812  -4.7753   6.9972   7.0168   8.3367   8.4599   9.0060   9.2575
    11.7500  11.8644  12.2017  12.6443  12.9362  13.3161  13.3228  13.3880
    14.8758  14.8780  21.4217  21.5393  23.6975

     occupation numbers 
     1.0000   1.0000   1.0000   1.0000   1.0000   1.0000   1.0000   1.0000
     1.0000   1.0000   1.0000   1.0000   1.0000   1.0000   1.0000   1.0000
     1.0000   1.0000   1.0000   1.0000   1.0000   0.9995   0.9994   0.9981
     0.0000   0.0000   0.0000   0.0000   0.0000

          k =-0.2500-0.2500-0.2500 (  1086 PWs)   bands (ev):

   -90.4218 -88.5061 -50.8201 -50.7912 -50.7912 -48.9584 -48.9408 -48.9408
    -5.5448  -5.5390   7.9927   8.0450   9.0851   9.0851   9.7875   9.7875
    11.6389  11.6389  12.0199  12.7773  12.7773  12.9067  13.3768  13.3768
    14.8957  14.8957  18.1834  18.3204  26.0754

     occupation numbers 
     1.0000   1.0000   1.0000   1.0000   1.0000   1.0000   1.0000   1.0000
     1.0000   1.0000   1.0000   1.0000   1.0000   1.0000   1.0000   1.0000
     1.0000   1.0000   1.0000   1.0000   1.0000   1.0000   0.9984   0.9984
     0.0000   0.0000   0.0000   0.0000   0.0000

 ------ SPIN DOWN ----------


          k = 0.0000 0.0000 0.0000 (  1075 PWs)   bands (ev):

   -90.4217 -88.5061 -50.8203 -50.7911 -50.7911 -48.9583 -48.9408 -48.9408
    -6.1626  -4.8019   5.9805   8.5789   8.5789  11.1569  11.1569  11.1585
    11.5404  11.5404  11.6412  11.9892  11.9892  12.9355  12.9355  13.1943
    15.4382  15.4382  15.5142  19.5652  23.9702

     occupation numbers 
     1.0000   1.0000   1.0000   1.0000   1.0000   1.0000   1.0000   1.0000
     1.0000   1.0000   1.0000   1.0000   1.0000   1.0000   1.0000   1.0000
     1.0000   1.0000   1.0000   1.0000   1.0000   1.0000   1.0000   1.0000
     0.0000   0.0000   0.0000   0.0000   0.0000

          k = 0.3750-0.1250-0.1250 (  1070 PWs)   bands (ev):

   -90.4209 -88.5051 -50.8187 -50.8016 -50.7937 -48.9567 -48.9525 -48.9437
    -5.5958  -4.7133   6.9170   8.1189   8.2719   8.7199   9.7115   9.9423
    11.5217  12.0327  12.1619  12.5164  12.6907  12.9570  13.2803  13.3082
    14.6289  15.1240  18.4697  22.2351  23.2416

     occupation numbers 
     1.0000   1.0000   1.0000   1.0000   1.0000   1.0000   1.0000   1.0000
     1.0000   1.0000   1.0000   1.0000   1.0000   1.0000   1.0000   1.0000
     1.0000   1.0000   1.0000   1.0000   1.0000   1.0000   0.9997   0.9995
     0.0002   0.0000   0.0000   0.0000   0.0000

          k =-0.7500 0.2500 0.2500 (  1076 PWs)   bands (ev):

   -90.4201 -88.5042 -50.8174 -50.8121 -50.7964 -48.9644 -48.9552 -48.9467
    -4.7855  -4.7710   6.9619   7.0528   8.2687   8.6196   8.8243   9.3716
    11.4702  12.1045  12.4172  12.4846  12.9847  13.1543  13.3081  13.4585
    14.8783  14.8938  21.4013  21.5584  23.6842

     occupation numbers 
     1.0000   1.0000   1.0000   1.0000   1.0000   1.0000   1.0000   1.0000
     1.0000   1.0000   1.0000   1.0000   1.0000   1.0000   1.0000   1.0000
     1.0000   1.0000   1.0000   1.0000   1.0000   1.0000   0.9995   0.9943
     0.0000   0.0000   0.0000   0.0000   0.0000

          k = 0.2500 0.2500-0.2500 (  1081 PWs)   bands (ev):

   -90.4209 -88.5051 -50.8188 -50.8017 -50.7938 -48.9567 -48.9526 -48.9437
    -5.5418  -4.7783   7.0077   8.0176   8.3918   8.9364   9.4749   9.5734
    11.6001  11.9607  12.0841  12.6922  12.7519  13.0434  13.3633  13.5044
    14.8741  14.8931  18.2514  21.4810  23.7517

     occupation numbers 
     1.0000   1.0000   1.0000   1.0000   1.0000   1.0000   1.0000   1.0000
     1.0000   1.0000   1.0000   1.0000   1.0000   1.0000   1.0000   1.0000
     1.0000   1.0000   1.0000   1.0000   1.0000   1.0000   0.9987   0.9890
     0.0000   0.0000   0.0000   0.0000   0.0000

          k =-0.8750 0.6250 0.1250 (  1060 PWs)   bands (ev):

   -90.4201 -88.5042 -50.8172 -50.8081 -50.8003 -48.9599 -48.9550 -48.9511
    -4.8829  -4.6760   6.9272   7.4448   8.2035   8.5761   8.8179   8.9894
    11.8674  12.0247  12.1911  12.6222  12.7538  13.1577  13.2546  13.4107
    14.7208  15.1885  21.1307  22.1672  23.9401

     occupation numbers 
     1.0000   1.0000   1.0000   1.0000   1.0000   1.0000   1.0000   1.0000
     1.0000   1.0000   1.0000   1.0000   1.0000   1.0000   1.0000   1.0000
     1.0000   1.0000   1.0000   1.0000   1.0000   1.0000   0.9998   0.9972
     0.0000   0.0000   0.0000   0.0000   0.0000

          k =-0.5000 0.5000 0.0000 (  1064 PWs)   bands (ev):

   -90.4201 -88.5042 -50.8173 -50.8082 -50.8004 -48.9599 -48.9551 -48.9512
    -4.9269  -4.6344   6.9879   8.0380   8.0416   8.3922   8.6671   8.7313
    11.9582  12.1442  12.2647  12.5026  12.6681  12.9643  13.2534  13.4007
    14.5622  15.4789  21.0190  22.5130  24.6528

     occupation numbers 
     1.0000   1.0000   1.0000   1.0000   1.0000   1.0000   1.0000   1.0000
     1.0000   1.0000   1.0000   1.0000   1.0000   1.0000   1.0000   1.0000
     1.0000   1.0000   1.0000   1.0000   1.0000   1.0000   0.9998   0.9977
     0.0007   0.0000   0.0000   0.0000   0.0000

          k =-0.5000-0.5000 0.5000 (  1068 PWs)   bands (ev):

   -90.4201 -88.5042 -50.8173 -50.8121 -50.7964 -48.9643 -48.9550 -48.9467
    -4.8017  -4.7412   5.9796   7.2663   8.5846   8.6033   9.8675   9.8683
    10.7958  12.0284  12.2489  12.4795  12.6378  13.0588  13.3238  13.4383
    15.4854  15.5491  19.5673  20.1698  23.9709

     occupation numbers 
     1.0000   1.0000   1.0000   1.0000   1.0000   1.0000   1.0000   1.0000
     1.0000   1.0000   1.0000   1.0000   1.0000   1.0000   1.0000   1.0000
     1.0000   1.0000   1.0000   1.0000   1.0000   1.0000   0.9994   0.9958
     0.0000   0.0000   0.0000   0.0000   0.0000

          k = 0.1250 0.1250 0.1250 (  1068 PWs)   bands (ev):

   -90.4217 -88.5060 -50.8201 -50.7911 -50.7911 -48.9582 -48.9407 -48.9407
    -5.9903  -5.0347   6.5497   8.7618   8.7618   9.8817  10.4089  10.4089
    11.5880  11.5880  11.9206  12.7009  12.7009  12.9325  12.9325  13.0562
    15.2110  15.2110  16.5314  19.3632  24.3938

     occupation numbers 
     1.0000   1.0000   1.0000   1.0000   1.0000   1.0000   1.0000   1.0000
     1.0000   1.0000   1.0000   1.0000   1.0000   1.0000   1.0000   1.0000
     1.0000   1.0000   1.0000   1.0000   1.0000   1.0000   1.0000   1.0000
     0.0000   0.0000   0.0000   0.0000   0.0000

          k =-1.0000 0.5000 0.5000 (  1068 PWs)   bands (ev):

   -90.4209 -88.5051 -50.8187 -50.8015 -50.7937 -48.9566 -48.9525 -48.9437
    -5.4096  -4.9270   6.9825   7.7367   8.6601   8.7111  10.0736  10.0833
    11.2065  12.0933  12.1658  12.1858  12.4831  13.0231  13.1913  13.3779
    14.2873  15.4008  19.4487  21.0192  24.9084

     occupation numbers 
     1.0000   1.0000   1.0000   1.0000   1.0000   1.0000   1.0000   1.0000
     1.0000   1.0000   1.0000   1.0000   1.0000   1.0000   1.0000   1.0000
     1.0000   1.0000   1.0000   1.0000   1.0000   1.0000   1.0000   0.9984
     0.0376   0.0000   0.0000   0.0000   0.0000

          k =-0.6250 0.3750 0.3750 (  1065 PWs)   bands (ev):

   -90.4201 -88.5042 -50.8172 -50.8121 -50.7964 -48.9643 -48.9550 -48.9467
    -4.7969  -4.7528   6.2949   7.2892   8.4981   8.6793   9.1399   9.6334
    11.2191  12.0810  12.2966  12.6108  12.7762  13.0004  13.3173  13.4508
    15.2006  15.2177  20.4460  20.7198  23.7819

     occupation numbers 
     1.0000   1.0000   1.0000   1.0000   1.0000   1.0000   1.0000   1.0000
     1.0000   1.0000   1.0000   1.0000   1.0000   1.0000   1.0000   1.0000
     1.0000   1.0000   1.0000   1.0000   1.0000   1.0000   0.9994   0.9949
     0.0000   0.0000   0.0000   0.0000   0.0000

          k =-0.6250-0.6250 0.8750 (  1070 PWs)   bands (ev):

   -90.4209 -88.5051 -50.8186 -50.8016 -50.7937 -48.9566 -48.9526 -48.9437
    -5.2726  -5.0749   7.2187   7.4277   8.9091   9.1370   9.4362   9.6985
    11.3510  11.9692  12.0932  12.5269  12.7222  12.9730  13.3177  13.3222
    14.5718  15.2206  19.3728  20.4481  25.1757

     occupation numbers 
     1.0000   1.0000   1.0000   1.0000   1.0000   1.0000   1.0000   1.0000
     1.0000   1.0000   1.0000   1.0000   1.0000   1.0000   1.0000   1.0000
     1.0000   1.0000   1.0000   1.0000   1.0000   1.0000   0.9994   0.9994
     0.0006   0.0000   0.0000   0.0000   0.0000

          k =-0.2500-0.7500 0.7500 (  1076 PWs)   bands (ev):

   -90.4201 -88.5042 -50.8173 -50.8082 -50.8005 -48.9600 -48.9551 -48.9512
    -4.7812  -4.7753   6.9972   7.0168   8.3367   8.4599   9.0060   9.2575
    11.7500  11.8644  12.2017  12.6442  12.9362  13.3161  13.3228  13.3880
    14.8758  14.8780  21.4217  21.5393  23.6975

     occupation numbers 
     1.0000   1.0000   1.0000   1.0000   1.0000   1.0000   1.0000   1.0000
     1.0000   1.0000   1.0000   1.0000   1.0000   1.0000   1.0000   1.0000
     1.0000   1.0000   1.0000   1.0000   1.0000   0.9995   0.9994   0.9981
     0.0000   0.0000   0.0000   0.0000   0.0000

          k =-0.2500-0.2500-0.2500 (  1086 PWs)   bands (ev):

   -90.4218 -88.5061 -50.8201 -50.7912 -50.7912 -48.9584 -48.9408 -48.9408
    -5.5448  -5.5390   7.9927   8.0450   9.0851   9.0851   9.7875   9.7875
    11.6389  11.6389  12.0199  12.7773  12.7773  12.9067  13.3768  13.3768
    14.8957  14.8957  18.1834  18.3204  26.0754

     occupation numbers 
     1.0000   1.0000   1.0000   1.0000   1.0000   1.0000   1.0000   1.0000
     1.0000   1.0000   1.0000   1.0000   1.0000   1.0000   1.0000   1.0000
     1.0000   1.0000   1.0000   1.0000   1.0000   1.0000   0.9984   0.9984
     0.0000   0.0000   0.0000   0.0000   0.0000

     the Fermi energy is    13.9449 ev

!    total energy              =    -769.76841780 Ry
     Harris-Foulkes estimate   =    -769.76841778 Ry
     estimated scf accuracy    <          1.2E-12 Ry

     The total energy is the sum of the following terms:

     one-electron contribution =    -436.53182571 Ry
     hartree contribution      =     247.49983499 Ry
     xc contribution           =     -86.04727387 Ry
     ewald contribution        =    -475.64505670 Ry
     one-center paw contrib.   =     -19.04355604 Ry
      -> PAW hartree energy AE =      52.56221495 Ry
      -> PAW hartree energy PS =     -52.32661803 Ry
      -> PAW xc energy AE      =     -33.37634346 Ry
      -> PAW xc energy PS      =      14.09719049 Ry
      -> total E_H with PAW    =     247.73543192 Ry
      -> total E_XC with PAW   =    -105.32642684 Ry
     smearing contrib. (-TS)   =      -0.00054048 Ry

     total magnetization       =    -0.00 Bohr mag/cell
     absolute magnetization    =     3.05 Bohr mag/cell

     convergence has been achieved in  19 iterations

     Forces acting on atoms (cartesian axes, Ry/au):

     atom    1 type  1   force =     0.00000000    0.00000000    0.00000000
     atom    2 type  2   force =     0.00000000    0.00000000   -0.00000000
     atom    3 type  3   force =    -0.00000017   -0.00000017   -0.00000017
     atom    4 type  3   force =     0.00000017    0.00000017    0.00000017
     The non-local contrib.  to forces
     atom    1 type  1   force =     0.00000000    0.00000000    0.00000000
     atom    2 type  2   force =    -0.00000000    0.00000000   -0.00000000
     atom    3 type  3   force =     0.00000020    0.00000020    0.00000020
     atom    4 type  3   force =    -0.00000020   -0.00000020   -0.00000020
     The ionic contribution  to forces
     atom    1 type  1   force =    -0.00000000   -0.00000000   -0.00000000
     atom    2 type  2   force =     0.00000000    0.00000000    0.00000000
     atom    3 type  3   force =     0.00000000    0.00000000    0.00000000
     atom    4 type  3   force =     0.00000000    0.00000000    0.00000000
     The local contribution  to forces
     atom    1 type  1   force =     0.00000000    0.00000000    0.00000000
     atom    2 type  2   force =     0.00000000    0.00000000    0.00000000
     atom    3 type  3   force =    -0.00000070   -0.00000070   -0.00000070
     atom    4 type  3   force =     0.00000070    0.00000070    0.00000070
     The core correction contribution to forces
     atom    1 type  1   force =     0.00000000    0.00000000    0.00000000
     atom    2 type  2   force =     0.00000000    0.00000000    0.00000000
     atom    3 type  3   force =    -0.00000008   -0.00000008   -0.00000008
     atom    4 type  3   force =     0.00000008    0.00000008    0.00000008
     The Hubbard contrib.    to forces
     atom    1 type  1   force =     0.00000000    0.00000000    0.00000000
     atom    2 type  2   force =     0.00000000    0.00000000    0.00000000
     atom    3 type  3   force =     0.00000000    0.00000000    0.00000000
     atom    4 type  3   force =     0.00000000    0.00000000    0.00000000
     The SCF correction term to forces
     atom    1 type  1   force =     0.00000000    0.00000000   -0.00000000
     atom    2 type  2   force =    -0.00000000   -0.00000000   -0.00000000
     atom    3 type  3   force =     0.00000040    0.00000040    0.00000040
     atom    4 type  3   force =    -0.00000040   -0.00000040   -0.00000040

     Total force =     0.000000     Total SCF correction =     0.000001
     SCF correction compared to forces is large: reduce conv_thr to get better values


     Computing stress (Cartesian axis) and pressure

          total   stress  (Ry/bohr**3)                   (kbar)     P=  -76.05
  -0.00051697  -0.00003172  -0.00003172        -76.05     -4.67     -4.67
  -0.00003172  -0.00051697  -0.00003172         -4.67    -76.05     -4.67
  -0.00003172  -0.00003172  -0.00051697         -4.67     -4.67    -76.05

     kinetic stress (kbar)  49569.07     -7.97     -7.97
                               -7.97  49569.07     -7.97
                               -7.97     -7.97  49569.07

     local   stress (kbar)  -8485.69     13.74     13.74
                               13.74  -8485.69     13.74
                               13.74     13.74  -8485.69

     nonloc. stress (kbar)  19742.44     -5.32     -5.32
                               -5.32  19742.44     -5.32
                               -5.32     -5.32  19742.44

     hartree stress (kbar)  48673.40     -5.04     -5.04
                               -5.04  48673.40     -5.04
                               -5.04     -5.04  48673.40

     exc-cor stress (kbar) -13406.70     -0.14     -0.14
                               -0.14 -13406.70     -0.14
                               -0.14     -0.14 -13406.70

     corecor stress (kbar)  -2628.05      0.07      0.07
                                0.07  -2628.05      0.07
                                0.07      0.07  -2628.05

     ewald   stress (kbar) -93540.52      0.00      0.00
                                0.00 -93540.52      0.00
                                0.00      0.00 -93540.52

     hubbard stress (kbar)      0.00      0.00      0.00
                                0.00      0.00      0.00
                                0.00      0.00      0.00

     london  stress (kbar)      0.00      0.00      0.00
                                0.00      0.00      0.00
                                0.00      0.00      0.00

     DFT-D3  stress (kbar)      0.00      0.00      0.00
                                0.00      0.00      0.00
                                0.00      0.00      0.00

     XDM     stress (kbar)      0.00      0.00      0.00
                                0.00      0.00      0.00
                                0.00      0.00      0.00

     dft-nl  stress (kbar)      0.00      0.00      0.00
                                0.00      0.00      0.00
                                0.00      0.00      0.00

     TS-vdW  stress (kbar)      0.00      0.00      0.00
                                0.00      0.00      0.00
                                0.00      0.00      0.00



     Writing output data file nio.save/
 
     init_run     :     28.84s CPU      2.80s WALL (       1 calls)
     electrons    :    989.99s CPU     83.33s WALL (       1 calls)
     forces       :      5.72s CPU      0.49s WALL (       1 calls)
     stress       :     14.51s CPU      1.29s WALL (       1 calls)

     Called by init_run:
     wfcinit      :     16.72s CPU      1.40s WALL (       1 calls)
     wfcinit:atom :      0.05s CPU      0.01s WALL (      26 calls)
     wfcinit:wfcr :     16.08s CPU      1.34s WALL (      26 calls)
     potinit      :      3.47s CPU      0.29s WALL (       1 calls)
     hinit0       :      5.27s CPU      0.82s WALL (       1 calls)

     Called by electrons:
     c_bands      :    695.97s CPU     58.37s WALL (      19 calls)
     sum_band     :    176.23s CPU     14.88s WALL (      19 calls)
     v_of_rho     :     46.33s CPU      3.88s WALL (      20 calls)
     v_h          :      2.59s CPU      0.22s WALL (      20 calls)
     v_xc         :     48.03s CPU      4.02s WALL (      22 calls)
     newd         :     48.44s CPU      4.24s WALL (      20 calls)
     PAW_pot      :      8.41s CPU      0.70s WALL (      20 calls)
     mix_rho      :      9.12s CPU      0.77s WALL (      19 calls)

     Called by c_bands:
     init_us_2    :      1.64s CPU      0.16s WALL (    1066 calls)
     cegterg      :    645.02s CPU     53.73s WALL (     494 calls)

     Called by sum_band:
     sum_band:bec :      0.10s CPU      0.01s WALL (     494 calls)
     addusdens    :     35.00s CPU      3.12s WALL (      19 calls)

     Called by *egterg:
     h_psi        :    632.45s CPU     52.75s WALL (    1619 calls)
     s_psi        :      0.91s CPU      0.08s WALL (    1619 calls)
     g_psi        :      0.24s CPU      0.02s WALL (    1099 calls)
     cdiaghg      :     23.13s CPU      1.82s WALL (    1593 calls)
     cegterg:over :      1.12s CPU      0.11s WALL (    1099 calls)
     cegterg:upda :      1.08s CPU      0.08s WALL (    1099 calls)
     cegterg:last :      0.38s CPU      0.03s WALL (     494 calls)

     Called by h_psi:
     h_psi:pot    :    632.30s CPU     52.73s WALL (    1619 calls)
     h_psi:calbec :      1.74s CPU      0.11s WALL (    1619 calls)
     vloc_psi     :    629.25s CPU     52.52s WALL (    1619 calls)
     add_vuspsi   :      1.21s CPU      0.08s WALL (    1619 calls)

     General routines
     calbec       :      2.42s CPU      0.16s WALL (    2243 calls)
     fft          :     56.75s CPU      4.74s WALL (     538 calls)
     ffts         :      0.97s CPU      0.09s WALL (      78 calls)
     fftw         :    742.39s CPU     62.16s WALL (   84762 calls)
     interpolate  :      5.27s CPU      0.43s WALL (      40 calls)
 
     Parallel routines

     PAW routines
     PAW_pot      :      8.41s CPU      0.70s WALL (      20 calls)
     PAW_symme    :      0.00s CPU      0.00s WALL (      39 calls)
 
     PWSCF        :  17m35.70s CPU   2m20.22s WALL

 
   This run was terminated on:  11:46: 5   8Apr2020            

=------------------------------------------------------------------------------=
   JOB DONE.
=------------------------------------------------------------------------------=
