
     Program PWSCF v.6.4.1 starts on  8Apr2020 at 11:42:24 

     This program is part of the open-source Quantum ESPRESSO suite
     for quantum simulation of materials; please cite
         "P. Giannozzi et al., J. Phys.:Condens. Matter 21 395502 (2009);
         "P. Giannozzi et al., J. Phys.:Condens. Matter 29 465901 (2017);
          URL http://www.quantum-espresso.org", 
     in publications or presentations arising from this work. More details at
     http://www.quantum-espresso.org/quote

     Parallel version (MPI & OpenMP), running on      12 processor cores
     Number of MPI processes:                 1
     Threads/MPI process:                    12

     MPI processes distributed on     1 nodes
     Reading input from pw.in
Warning: card &IONS ignored
Warning: card  ION_DYNAMICS='BFGS', ignored
Warning: card / ignored
Warning: card &CELL ignored
Warning: card  CELL_DYNAMICS='BFGS', ignored
Warning: card / ignored
     Message from routine read_cards :
     DEPRECATED: no units specified in CELL_PARAMETERS card

     Current dimensions of program PWSCF are:
     Max number of different atomic species (ntypx) = 10
     Max number of k-points (npk) =  40000
     Max angular momentum in pseudopotentials (lmaxx) =  3
     Message from routine read_upf::
     Pseudo file Li.pw91-n-nc.UPF has been fixed on the fly.
To avoid this message in the future, permanently fix 
 your pseudo files following these instructions: 
https://gitlab.com/QEF/q-e/blob/master/upftools/how_to_fix_upf.md
     Message from routine read_upf::
     Pseudo file F.pw91-n-nc.UPF has been fixed on the fly.
To avoid this message in the future, permanently fix 
 your pseudo files following these instructions: 
https://gitlab.com/QEF/q-e/blob/master/upftools/how_to_fix_upf.md

     Subspace diagonalization in iterative solution of the eigenvalue problem:
     a serial algorithm will be used

     Message from routine setup:
     DEPRECATED: symmetry with ibrav=0, use correct ibrav instead
 
     G-vector sticks info
     --------------------
     sticks:   dense  smooth     PW     G-vecs:    dense   smooth      PW
     Sum        1639     253     85                43599     2565     459
 


     bravais-lattice index     =            0
     lattice parameter (alat)  =       7.6050  a.u.
     unit-cell volume          =     113.5729 (a.u.)^3
     number of atoms/cell      =            2
     number of atomic types    =            2
     number of electrons       =         8.00
     number of Kohn-Sham states=            8
     kinetic-energy cutoff     =      30.0000  Ry
     charge density cutoff     =     800.0000  Ry
     convergence threshold     =      1.0E-11
     mixing beta               =       0.7000
     number of iterations used =            8  plain     mixing
     Exchange-correlation      = PW91 ( 1  4  2  2 0 0)

     celldm(1)=   7.605017  celldm(2)=   0.000000  celldm(3)=   0.000000
     celldm(4)=   0.000000  celldm(5)=   0.000000  celldm(6)=   0.000000

     crystal axes: (cart. coord. in units of alat)
               a(1) = (   0.000000   0.505415   0.505415 )  
               a(2) = (   0.505415   0.000000   0.505415 )  
               a(3) = (   0.505415   0.505415   0.000000 )  

     reciprocal axes: (cart. coord. in units 2 pi/alat)
               b(1) = ( -0.989286  0.989286  0.989286 )  
               b(2) = (  0.989286 -0.989286  0.989286 )  
               b(3) = (  0.989286  0.989286 -0.989286 )  


     PseudoPot. # 1 for Li read from file:
     ./Li.pw91-n-nc.UPF
     MD5 check sum: 616fd709c80283f518d4fe7db66a723c
     Pseudo is Norm-conserving + core correction, Zval =  1.0
     Generated using "atomic" code by A. Dal Corso v.5.0.99 svn rev. 10869
     Using radial grid of 1017 points,  1 beta functions with: 
                l(1) =   1

     PseudoPot. # 2 for F  read from file:
     ./F.pw91-n-nc.UPF
     MD5 check sum: 23a1c2e48ae8d91373f3da4fb3cdcdcc
     Pseudo is Norm-conserving, Zval =  7.0
     Generated using "atomic" code by A. Dal Corso v.5.0.99 svn rev. 10869
     Using radial grid of 1105 points,  1 beta functions with: 
                l(1) =   1

     atomic species   valence    mass     pseudopotential
        Li             1.00     6.94100     Li( 1.00)
        F              7.00    18.99840     F ( 1.00)

      6 Sym. Ops. (no inversion) found



   Cartesian axes

     site n.     atom                  positions (alat units)
         1           Li  tau(   1) = (   0.0000000   0.0000000   0.0000000  )
         2           F   tau(   2) = (   0.5100000   0.5100000   0.5100000  )

     number of k points=     6  gaussian smearing, width (Ry)=  0.0200
                       cart. coord. in units 2pi/alat
        k(    1) = (   0.0000000   0.0000000   0.0000000), wk =   0.0740741
        k(    2) = (   0.3297621   0.3297621  -0.3297621), wk =   0.4444444
        k(    3) = (   0.6595242   0.0000000  -0.0000000), wk =   0.4444444
        k(    4) = (  -0.0000000  -0.6595242   0.6595242), wk =   0.4444444
        k(    5) = (   0.3297621   0.3297621   0.3297621), wk =   0.1481481
        k(    6) = (   0.6595242  -0.0000000   0.6595242), wk =   0.4444444

     Dense  grid:    43599 G-vectors     FFT dimensions: (  50,  50,  50)

     Smooth grid:     2565 G-vectors     FFT dimensions: (  20,  20,  20)

     Estimated max dynamical RAM per process >      28.54 MB

     Initial potential from superposition of free atoms

     starting charge    7.99504, renormalised to    8.00000
     Starting wfcs are    8 randomized atomic wfcs

     total cpu time spent up to now is        1.3 secs

     Self-consistent Calculation

     iteration #  1     ecut=    30.00 Ry     beta= 0.70
     Davidson diagonalization with overlap
     ethr =  1.00E-02,  avg # of iterations =  3.0

     total cpu time spent up to now is        1.4 secs

     total energy              =     -47.06183669 Ry
     Harris-Foulkes estimate   =     -47.31956071 Ry
     estimated scf accuracy    <       0.41582290 Ry

     iteration #  2     ecut=    30.00 Ry     beta= 0.70
     Davidson diagonalization with overlap
     ethr =  5.20E-03,  avg # of iterations =  2.0

     total cpu time spent up to now is        1.5 secs

     total energy              =     -47.16141886 Ry
     Harris-Foulkes estimate   =     -47.23688906 Ry
     estimated scf accuracy    <       0.14540854 Ry

     iteration #  3     ecut=    30.00 Ry     beta= 0.70
     Davidson diagonalization with overlap
     ethr =  1.82E-03,  avg # of iterations =  1.3

     total cpu time spent up to now is        1.7 secs

     total energy              =     -47.18961363 Ry
     Harris-Foulkes estimate   =     -47.18955769 Ry
     estimated scf accuracy    <       0.00260551 Ry

     iteration #  4     ecut=    30.00 Ry     beta= 0.70
     Davidson diagonalization with overlap
     ethr =  3.26E-05,  avg # of iterations =  2.0

     total cpu time spent up to now is        1.8 secs

     total energy              =     -47.18969860 Ry
     Harris-Foulkes estimate   =     -47.18970288 Ry
     estimated scf accuracy    <       0.00002913 Ry

     iteration #  5     ecut=    30.00 Ry     beta= 0.70
     Davidson diagonalization with overlap
     ethr =  3.64E-07,  avg # of iterations =  2.0

     total cpu time spent up to now is        1.9 secs

     total energy              =     -47.18970898 Ry
     Harris-Foulkes estimate   =     -47.18970766 Ry
     estimated scf accuracy    <       0.00000044 Ry

     iteration #  6     ecut=    30.00 Ry     beta= 0.70
     Davidson diagonalization with overlap
     ethr =  5.49E-09,  avg # of iterations =  2.0

     total cpu time spent up to now is        2.0 secs

     total energy              =     -47.18970920 Ry
     Harris-Foulkes estimate   =     -47.18970906 Ry
     estimated scf accuracy    <          1.5E-09 Ry

     iteration #  7     ecut=    30.00 Ry     beta= 0.70
     Davidson diagonalization with overlap
     ethr =  1.85E-11,  avg # of iterations =  2.3

     total cpu time spent up to now is        2.2 secs

     total energy              =     -47.18970921 Ry
     Harris-Foulkes estimate   =     -47.18970920 Ry
     estimated scf accuracy    <          2.7E-10 Ry

     iteration #  8     ecut=    30.00 Ry     beta= 0.70
     Davidson diagonalization with overlap
     ethr =  3.32E-12,  avg # of iterations =  2.0

     total cpu time spent up to now is        2.3 secs

     End of self-consistent calculation

          k = 0.0000 0.0000 0.0000 (   331 PWs)   bands (ev):

   -24.4995   0.8816   0.8816   0.8836   7.8078  24.2216  24.2684  24.2684

          k = 0.3298 0.3298-0.3298 (   308 PWs)   bands (ev):

   -24.2594  -0.9134   1.3002   1.3015  10.0230  18.4676  19.7089  19.7163

          k = 0.6595 0.0000-0.0000 (   323 PWs)   bands (ev):

   -24.1525  -1.5432   0.2541   0.2563  13.0596  18.3709  18.4476  21.1505

          k =-0.0000-0.6595 0.6595 (   323 PWs)   bands (ev):

   -24.0701  -1.3990  -0.8736   0.5617  13.6917  16.2719  19.1444  19.8737

          k = 0.3298 0.3298 0.3298 (   308 PWs)   bands (ev):

   -24.2592  -0.9138   1.3008   1.3008  10.0257  18.4694  19.7041  19.7041

          k = 0.6595-0.0000 0.6595 (   323 PWs)   bands (ev):

   -24.0700  -1.3991  -0.8725   0.5604  13.6870  16.2722  19.2072  19.8108

     the Fermi energy is     6.1165 ev

!    total energy              =     -47.18970921 Ry
     Harris-Foulkes estimate   =     -47.18970921 Ry
     estimated scf accuracy    <          1.2E-12 Ry

     The total energy is the sum of the following terms:

     one-electron contribution =     -20.26617305 Ry
     hartree contribution      =      14.46057587 Ry
     xc contribution           =      -9.57974924 Ry
     ewald contribution        =     -31.80436279 Ry
     smearing contrib. (-TS)   =      -0.00000000 Ry

     convergence has been achieved in   8 iterations

     Forces acting on atoms (cartesian axes, Ry/au):

     atom    1 type  1   force =     0.00351991    0.00351991    0.00351991
     atom    2 type  2   force =    -0.00351991   -0.00351991   -0.00351991

     Total force =     0.008622     Total SCF correction =     0.000001


     Computing stress (Cartesian axis) and pressure

          total   stress  (Ry/bohr**3)                   (kbar)     P=-3310.56
  -0.02250471  -0.00000196  -0.00000196      -3310.56     -0.29     -0.29
  -0.00000196  -0.02250471  -0.00000196         -0.29  -3310.56     -0.29
  -0.00000196  -0.00000196  -0.02250471         -0.29     -0.29  -3310.56


     Writing output data file LiF_.save/
 
     init_run     :      1.93s CPU      0.19s WALL (       1 calls)
     electrons    :     12.77s CPU      1.10s WALL (       1 calls)
     forces       :      0.43s CPU      0.04s WALL (       1 calls)
     stress       :      1.06s CPU      0.09s WALL (       1 calls)

     Called by init_run:
     wfcinit      :      0.37s CPU      0.03s WALL (       1 calls)
     potinit      :      0.92s CPU      0.08s WALL (       1 calls)
     hinit0       :      0.63s CPU      0.06s WALL (       1 calls)

     Called by electrons:
     c_bands      :      6.75s CPU      0.60s WALL (       8 calls)
     sum_band     :      1.06s CPU      0.09s WALL (       8 calls)
     v_of_rho     :      3.33s CPU      0.29s WALL (       9 calls)
     mix_rho      :      0.61s CPU      0.04s WALL (       8 calls)

     Called by c_bands:
     init_us_2    :      0.20s CPU      0.01s WALL (     114 calls)
     cegterg      :      2.83s CPU      0.24s WALL (      48 calls)

     Called by sum_band:

     Called by *egterg:
     h_psi        :      2.59s CPU      0.22s WALL (     154 calls)
     g_psi        :      0.00s CPU      0.00s WALL (     100 calls)
     cdiaghg      :      0.30s CPU      0.03s WALL (     148 calls)

     Called by h_psi:
     h_psi:pot    :      2.59s CPU      0.22s WALL (     154 calls)
     h_psi:calbec :      0.00s CPU      0.00s WALL (     154 calls)
     vloc_psi     :      2.50s CPU      0.22s WALL (     154 calls)
     add_vuspsi   :      0.09s CPU      0.00s WALL (     154 calls)

     General routines
     calbec       :      0.00s CPU      0.00s WALL (     184 calls)
     fft          :      3.96s CPU      0.35s WALL (     130 calls)
     ffts         :      0.05s CPU      0.00s WALL (      17 calls)
     fftw         :      2.49s CPU      0.22s WALL (    2334 calls)
     interpolate  :      0.20s CPU      0.02s WALL (       9 calls)
 
     Parallel routines
 
     PWSCF        :     21.94s CPU      6.58s WALL

 
   This run was terminated on:  11:42:31   8Apr2020            

=------------------------------------------------------------------------------=
   JOB DONE.
=------------------------------------------------------------------------------=
