SIRIUS 7.1.0, git hash: 4823fd1d9f41de479322800a867d45a1e8a990bf
Warning! Compiled in 'debug' mode with assert statements enabled!

     Program PWSCF v.6.7GPU starts on 12Feb2021 at 16:44:38 

     This program is part of the open-source Quantum ESPRESSO suite
     for quantum simulation of materials; please cite
         "P. Giannozzi et al., J. Phys.:Condens. Matter 21 395502 (2009);
         "P. Giannozzi et al., J. Phys.:Condens. Matter 29 465901 (2017);
         "P. Giannozzi et al., J. Chem. Phys. 152 154105 (2020);
          URL http://www.quantum-espresso.org", 
     in publications or presentations arising from this work. More details at
     http://www.quantum-espresso.org/quote

     Parallel version (MPI & OpenMP), running on       8 processor cores
     Number of MPI processes:                 1
     Threads/MPI process:                     8

     MPI processes distributed on     1 nodes
     Reading input from pw.in
Warning: card &CELL ignored
Warning: card  CELL_DYNAMICS='BFGS', ignored
Warning: card / ignored
     Message from routine read_cards :
     DEPRECATED: no units specified in CELL_PARAMETERS card

     Current dimensions of program PWSCF are:
     Max number of different atomic species (ntypx) = 10
     Max number of k-points (npk) =  40000
     Max angular momentum in pseudopotentials (lmaxx) =  3
     Message from routine setup:
     using ibrav=0 with symmetry is DISCOURAGED, use correct ibrav instead

     Subspace diagonalization in iterative solution of the eigenvalue problem:
     a serial algorithm will be used


     G-vector sticks info
     --------------------
     sticks:   dense  smooth     PW     G-vecs:    dense   smooth      PW
     Sum        1639     253     85                43599     2565     459

     Using Slab Decomposition



     bravais-lattice index     =            0
     lattice parameter (alat)  =       7.6050  a.u.
     unit-cell volume          =     113.5729 (a.u.)^3
     number of atoms/cell      =            2
     number of atomic types    =            2
     number of electrons       =        10.00
     number of Kohn-Sham states=            9
     kinetic-energy cutoff     =      30.0000  Ry
     charge density cutoff     =     800.0000  Ry
     scf convergence threshold =      1.0E-11
     mixing beta               =       0.7000
     number of iterations used =            8  plain     mixing
     Exchange-correlation=  SLA  PZ   NOGX NOGC
                           (   1   1   0   0   0   0   0)

     celldm(1)=   7.605017  celldm(2)=   0.000000  celldm(3)=   0.000000
     celldm(4)=   0.000000  celldm(5)=   0.000000  celldm(6)=   0.000000

     crystal axes: (cart. coord. in units of alat)
               a(1) = (  -0.000000   0.505415   0.505415 )  
               a(2) = (   0.505415  -0.000000   0.505415 )  
               a(3) = (   0.505415   0.505415  -0.000000 )  

     reciprocal axes: (cart. coord. in units 2 pi/alat)
               b(1) = ( -0.989286  0.989286  0.989286 )  
               b(2) = (  0.989286 -0.989286  0.989286 )  
               b(3) = (  0.989286  0.989286 -0.989286 )  


     PseudoPot. # 1 for Li read from file:
     ./li_lda_v1.4.uspp.F.UPF
     MD5 check sum: 099978caaee46ddf82aee43f5434341b
     Pseudo is Ultrasoft, Zval =  3.0
     Generated by new atomic code, or converted to UPF format
     Using radial grid of  751 points,  5 beta functions with: 
                l(1) =   0
                l(2) =   0
                l(3) =   0
                l(4) =   1
                l(5) =   1
     Q(r) pseudized with 10 coefficients,  rinner =    1.150   1.150   1.150


     PseudoPot. # 2 for F  read from file:
     ./f_lda_v1.4.uspp.F.UPF
     MD5 check sum: b55d989075ece9c6a2e5eaa43b4e1062
     Pseudo is Ultrasoft, Zval =  7.0
     Generated by new atomic code, or converted to UPF format
     Using radial grid of  799 points,  4 beta functions with: 
                l(1) =   0
                l(2) =   0
                l(3) =   1
                l(4) =   1
     Q(r) pseudized with  8 coefficients,  rinner =    0.950   0.950   0.950


     atomic species   valence    mass     pseudopotential
        Li             3.00     6.94100     Li( 1.00)
        F              7.00    18.99840     F ( 1.00)

      6 Sym. Ops. (no inversion) found


                                    s                        frac. trans.

      isym =  1     identity                                     

 cryst.   s( 1) = (     1          0          0      )
                  (     0          1          0      )
                  (     0          0          1      )

 cart.    s( 1) = (  1.0000000  0.0000000 -0.0000000 )
                  (  0.0000000  1.0000000 -0.0000000 )
                  (  0.0000000 -0.0000000  1.0000000 )


      isym =  2     120 deg rotation - cart. axis [-1,-1,-1]     

 cryst.   s( 2) = (     0          0          1      )
                  (     1          0          0      )
                  (     0          1          0      )

 cart.    s( 2) = ( -0.0000000  1.0000000  0.0000000 )
                  ( -0.0000000  0.0000000  1.0000000 )
                  (  1.0000000  0.0000000 -0.0000000 )


      isym =  3     120 deg rotation - cart. axis [1,1,1]        

 cryst.   s( 3) = (     0          1          0      )
                  (     0          0          1      )
                  (     1          0          0      )

 cart.    s( 3) = (  0.0000000 -0.0000000  1.0000000 )
                  (  1.0000000 -0.0000000  0.0000000 )
                  ( -0.0000000  1.0000000  0.0000000 )


      isym =  4     inv. 180 deg rotation - cart. axis [1,-1,0]  

 cryst.   s( 4) = (     0          1          0      )
                  (     1          0          0      )
                  (     0          0          1      )

 cart.    s( 4) = (  0.0000000  1.0000000 -0.0000000 )
                  (  1.0000000  0.0000000 -0.0000000 )
                  ( -0.0000000  0.0000000  1.0000000 )


      isym =  5     inv. 180 deg rotation - cart. axis [-1,0,1]  

 cryst.   s( 5) = (     0          0          1      )
                  (     0          1          0      )
                  (     1          0          0      )

 cart.    s( 5) = ( -0.0000000  0.0000000  1.0000000 )
                  ( -0.0000000  1.0000000  0.0000000 )
                  (  1.0000000 -0.0000000  0.0000000 )


      isym =  6     inv. 180 deg rotation - cart. axis [0,1,-1]  

 cryst.   s( 6) = (     1          0          0      )
                  (     0          0          1      )
                  (     0          1          0      )

 cart.    s( 6) = (  1.0000000 -0.0000000  0.0000000 )
                  (  0.0000000 -0.0000000  1.0000000 )
                  (  0.0000000  1.0000000 -0.0000000 )


   Cartesian axes

     site n.     atom                  positions (alat units)
         1           Li  tau(   1) = (   0.0000000   0.0000000   0.0000000  )
         2           F   tau(   2) = (   0.5100000   0.5100000   0.5100000  )

   Crystallographic axes

     site n.     atom                  positions (cryst. coord.)
         1           Li  tau(   1) = (  0.0000000  0.0000000  0.0000000  )
         2           F   tau(   2) = (  0.5045360  0.5045360  0.5045360  )

     number of k points=     6  Gaussian smearing, width (Ry)=  0.0200
                       cart. coord. in units 2pi/alat
        k(    1) = (   0.0000000   0.0000000   0.0000000), wk =   0.0740741
        k(    2) = (   0.3297621   0.3297621  -0.3297621), wk =   0.4444444
        k(    3) = (   0.6595242   0.0000000  -0.0000000), wk =   0.4444444
        k(    4) = (  -0.0000000  -0.6595242   0.6595242), wk =   0.4444444
        k(    5) = (   0.3297621   0.3297621   0.3297621), wk =   0.1481481
        k(    6) = (   0.6595242  -0.0000000   0.6595242), wk =   0.4444444

                       cryst. coord.
        k(    1) = (   0.0000000   0.0000000   0.0000000), wk =   0.0740741
        k(    2) = (  -0.0000000  -0.0000000   0.3333333), wk =   0.4444444
        k(    3) = (  -0.0000000   0.3333333   0.3333333), wk =   0.4444444
        k(    4) = (   0.0000000   0.3333333  -0.3333333), wk =   0.4444444
        k(    5) = (   0.3333333   0.3333333   0.3333333), wk =   0.1481481
        k(    6) = (   0.3333333   0.6666667   0.3333333), wk =   0.4444444

     Dense  grid:    43599 G-vectors     FFT dimensions: (  50,  50,  50)

     Smooth grid:     2565 G-vectors     FFT dimensions: (  20,  20,  20)

     Dynamical RAM for                 wfc:       0.04 MB

     Dynamical RAM for     wfc (w. buffer):       0.30 MB

     Dynamical RAM for           str. fact:       1.33 MB

     Dynamical RAM for           local pot:       0.00 MB

     Dynamical RAM for          nlocal pot:       0.08 MB

     Dynamical RAM for                qrad:       1.94 MB

     Dynamical RAM for          rho,v,vnew:       4.86 MB

     Dynamical RAM for               rhoin:       1.62 MB

     Dynamical RAM for            rho*nmix:      10.64 MB

     Dynamical RAM for           G-vectors:       2.51 MB

     Dynamical RAM for          h,s,v(r/c):       0.01 MB

     Dynamical RAM for          <psi|beta>:       0.00 MB

     Dynamical RAM for                 psi:       0.09 MB

     Dynamical RAM for                hpsi:       0.09 MB

     Dynamical RAM for                spsi:       0.09 MB

     Dynamical RAM for      wfcinit/wfcrot:       0.09 MB

     Dynamical RAM for           addusdens:      35.26 MB

     Dynamical RAM for          addusforce:      35.59 MB

     Dynamical RAM for         addusstress:      39.25 MB

     Estimated static dynamical RAM per process >      30.06 MB

     Estimated max dynamical RAM per process >      69.31 MB

     Initial potential from superposition of free atoms

     starting charge    9.54925, renormalised to   10.00000
     Starting wfcs are    9 randomized atomic wfcs

     total cpu time spent up to now is        0.7 secs

     Self-consistent Calculation

     iteration #  1     ecut=    30.00 Ry     beta= 0.70
     Davidson diagonalization with overlap
     ethr =  1.00E-02,  avg # of iterations =  2.3

     Threshold (ethr) on eigenvalues was too large:
     Diagonalizing with lowered threshold

     Davidson diagonalization with overlap
     ethr =  4.43E-04,  avg # of iterations =  1.2

     total cpu time spent up to now is        0.9 secs

     total energy              =     -63.10781869 Ry
     Harris-Foulkes estimate   =     -63.13892908 Ry
     estimated scf accuracy    <       0.04551496 Ry
 
     Band energy sum           =      -8.37930013 Ry

     iteration #  2     ecut=    30.00 Ry     beta= 0.70
     Davidson diagonalization with overlap
     ethr =  4.55E-04,  avg # of iterations =  2.0

     total cpu time spent up to now is        1.1 secs

     total energy              =     -63.11350356 Ry
     Harris-Foulkes estimate   =     -63.12543417 Ry
     estimated scf accuracy    <       0.02040795 Ry
 
     Band energy sum           =      -9.29415293 Ry

     iteration #  3     ecut=    30.00 Ry     beta= 0.70
     Davidson diagonalization with overlap
     ethr =  2.04E-04,  avg # of iterations =  2.7

     total cpu time spent up to now is        1.2 secs

     total energy              =     -63.11864760 Ry
     Harris-Foulkes estimate   =     -63.11922538 Ry
     estimated scf accuracy    <       0.00118479 Ry
 
     Band energy sum           =      -8.87992858 Ry

     iteration #  4     ecut=    30.00 Ry     beta= 0.70
     Davidson diagonalization with overlap
     ethr =  1.18E-05,  avg # of iterations =  3.0

     total cpu time spent up to now is        1.4 secs

     total energy              =     -63.11884679 Ry
     Harris-Foulkes estimate   =     -63.11884605 Ry
     estimated scf accuracy    <       0.00000194 Ry
 
     Band energy sum           =      -8.97286737 Ry

     iteration #  5     ecut=    30.00 Ry     beta= 0.70
     Davidson diagonalization with overlap
     ethr =  1.94E-08,  avg # of iterations =  3.7

     total cpu time spent up to now is        1.6 secs

     total energy              =     -63.11884864 Ry
     Harris-Foulkes estimate   =     -63.11884880 Ry
     estimated scf accuracy    <       0.00000030 Ry
 
     Band energy sum           =      -8.97350067 Ry

     iteration #  6     ecut=    30.00 Ry     beta= 0.70
     Davidson diagonalization with overlap
     ethr =  2.98E-09,  avg # of iterations =  2.0

     total cpu time spent up to now is        1.7 secs

     total energy              =     -63.11884870 Ry
     Harris-Foulkes estimate   =     -63.11884870 Ry
     estimated scf accuracy    <          4.1E-09 Ry
 
     Band energy sum           =      -8.97168785 Ry

     iteration #  7     ecut=    30.00 Ry     beta= 0.70
     Davidson diagonalization with overlap
     ethr =  4.13E-11,  avg # of iterations =  2.0

     total cpu time spent up to now is        1.9 secs

     total energy              =     -63.11884870 Ry
     Harris-Foulkes estimate   =     -63.11884870 Ry
     estimated scf accuracy    <          3.7E-11 Ry
 
     Band energy sum           =      -8.97188051 Ry

     iteration #  8     ecut=    30.00 Ry     beta= 0.70
     Davidson diagonalization with overlap
     ethr =  3.72E-13,  avg # of iterations =  3.3

     total cpu time spent up to now is        2.0 secs

     End of self-consistent calculation

          k = 0.0000 0.0000 0.0000 (   331 PWs)   bands (ev):

   -39.5470 -19.2801   0.2315   0.2315   0.2334   8.7775  23.2342  23.2903
    23.2903

     occupation numbers 
     1.0000   1.0000   1.0000   1.0000   1.0000   0.0000   0.0000   0.0000
     0.0000

          k = 0.3298 0.3298-0.3298 (   308 PWs)   bands (ev):

   -39.4972 -18.9685  -1.6866   0.0842   0.0856  10.3613  16.6346  19.1769
    19.1811

     occupation numbers 
     1.0000   1.0000   1.0000   1.0000   1.0000   0.0000   0.0000   0.0000
     0.0000

          k = 0.6595 0.0000-0.0000 (   323 PWs)   bands (ev):

   -39.4873 -18.8008  -1.9450  -0.5056  -0.5036  12.4601  17.1351  18.1879
    19.7729

     occupation numbers 
     1.0000   1.0000   1.0000   1.0000   1.0000   0.0000   0.0000   0.0000
     0.0000

          k =-0.0000-0.6595 0.6595 (   323 PWs)   bands (ev):

   -39.4712 -18.6825  -1.8874  -1.5194  -0.3131  13.2476  14.6361  18.3239
    18.9979

     occupation numbers 
     1.0000   1.0000   1.0000   1.0000   1.0000   0.0000   0.0000   0.0000
     0.0000

          k = 0.3298 0.3298 0.3298 (   308 PWs)   bands (ev):

   -39.4972 -18.9680  -1.6869   0.0845   0.0845  10.3625  16.6363  19.1729
    19.1729

     occupation numbers 
     1.0000   1.0000   1.0000   1.0000   1.0000   0.0000   0.0000   0.0000
     0.0000

          k = 0.6595-0.0000 0.6595 (   323 PWs)   bands (ev):

   -39.4712 -18.6823  -1.8875  -1.5185  -0.3144  13.2420  14.6364  18.3988
    18.9235

     occupation numbers 
     1.0000   1.0000   1.0000   1.0000   1.0000   0.0000   0.0000   0.0000
     0.0000

     the Fermi energy is     4.6741 ev

!    total energy              =     -63.11884870 Ry
     Harris-Foulkes estimate   =     -63.11884870 Ry
     estimated scf accuracy    <          2.7E-12 Ry
     smearing contrib. (-TS)   =      -0.00000000 Ry
     internal energy E=F+TS    =     -63.11884870 Ry

     The total energy is F=E-TS. E is the sum of the following terms:
     one-electron contribution =     -27.59175918 Ry
     hartree contribution      =      17.50437921 Ry
     xc contribution           =     -12.48850167 Ry
     ewald contribution        =     -40.54296705 Ry
 
     Band energy sum           =      -8.97189955 Ry

     convergence has been achieved in   8 iterations

     evp_work_count     :        771
     num_loc_op_applied :       1260

     Forces acting on atoms (cartesian axes, Ry/au):

     atom    1 type  1   force =     0.00075021    0.00075021    0.00075021
     atom    2 type  2   force =    -0.00075021   -0.00075021   -0.00075021
     The non-local contrib.  to forces
     atom    1 type  1   force =     0.00427270    0.00427270    0.00427270
     atom    2 type  2   force =     0.00842561    0.00842561    0.00842561
     The ionic contribution  to forces
     atom    1 type  1   force =     0.05395847    0.05395847    0.05395847
     atom    2 type  2   force =    -0.05395847   -0.05395847   -0.05395847
     The local contribution  to forces
     atom    1 type  1   force =    -0.05748116   -0.05748116   -0.05748116
     atom    2 type  2   force =     0.04478259    0.04478259    0.04478259
     The core correction contribution to forces
     atom    1 type  1   force =     0.00000000    0.00000000    0.00000000
     atom    2 type  2   force =     0.00000000    0.00000000    0.00000000
     The Hubbard contrib.    to forces
     atom    1 type  1   force =     0.00000000    0.00000000    0.00000000
     atom    2 type  2   force =     0.00000000    0.00000000    0.00000000
     The SCF correction term to forces
     atom    1 type  1   force =     0.00000016    0.00000016    0.00000016
     atom    2 type  2   force =     0.00000001    0.00000001    0.00000001

     Total force =     0.001838     Total SCF correction =     0.000000


     Computing stress (Cartesian axis) and pressure

          total   stress  (Ry/bohr**3)                   (kbar)     P=     -219.50
  -0.00149216  -0.00000006  -0.00000006         -219.50       -0.01       -0.01
  -0.00000006  -0.00149216  -0.00000006           -0.01     -219.50       -0.01
  -0.00000006  -0.00000006  -0.00149216           -0.01       -0.01     -219.50

     kinetic stress (kbar)  18259.26      0.15      0.15
                                0.15  18259.26      0.15
                                0.15      0.15  18259.26

     local   stress (kbar)  -3452.06     10.73     10.73
                               10.73  -3452.06     10.73
                               10.73     10.73  -3452.06

     nonloc. stress (kbar)    -27.83      0.04      0.04
                                0.04    -27.83      0.04
                                0.04      0.04    -27.83

     hartree stress (kbar)   7557.51     -3.77     -3.77
                               -3.77   7557.51     -3.77
                               -3.77     -3.77   7557.51

     exc-cor stress (kbar)  -5051.97      0.00      0.00
                                0.00  -5051.97      0.00
                                0.00      0.00  -5051.97

     corecor stress (kbar)      0.00      0.00      0.00
                                0.00      0.00      0.00
                                0.00      0.00      0.00

     ewald   stress (kbar) -17504.41     -7.16     -7.16
                               -7.16 -17504.41     -7.16
                               -7.16     -7.16 -17504.41

     hubbard stress (kbar)      0.00      0.00      0.00
                                0.00      0.00      0.00
                                0.00      0.00      0.00

     DFT-D   stress (kbar)      0.00      0.00      0.00
                                0.00      0.00      0.00
                                0.00      0.00      0.00

     XDM     stress (kbar)      0.00      0.00      0.00
                                0.00      0.00      0.00
                                0.00      0.00      0.00

     dft-nl  stress (kbar)      0.00      0.00      0.00
                                0.00      0.00      0.00
                                0.00      0.00      0.00

     TS-vdW  stress (kbar)      0.00      0.00      0.00
                                0.00      0.00      0.00
                                0.00      0.00      0.00



     Writing output data file ./LiF_.save/

     init_run     :      0.58s CPU      0.55s WALL (       1 calls)
     electrons    :      1.98s CPU      1.37s WALL (       1 calls)
     forces       :      0.10s CPU      0.06s WALL (       1 calls)
     stress       :      0.60s CPU      0.19s WALL (       1 calls)

     Called by init_run:
     wfcinit      :      0.02s CPU      0.02s WALL (       1 calls)
     wfcinit:atom :      0.00s CPU      0.00s WALL (       6 calls)
     wfcinit:wfcr :      0.02s CPU      0.02s WALL (       6 calls)
     potinit      :      0.03s CPU      0.01s WALL (       1 calls)
     hinit0       :      0.45s CPU      0.46s WALL (       1 calls)

     Called by electrons:
     c_bands      :      0.43s CPU      0.45s WALL (       9 calls)
     sum_band     :      0.85s CPU      0.45s WALL (       9 calls)
     v_of_rho     :      0.10s CPU      0.06s WALL (       9 calls)
     v_h          :      0.03s CPU      0.03s WALL (       9 calls)
     v_xc         :      0.08s CPU      0.03s WALL (       9 calls)
     newd         :      0.63s CPU      0.38s WALL (       9 calls)
     mix_rho      :      0.03s CPU      0.05s WALL (       9 calls)

     Called by c_bands:
     init_us_2    :      0.01s CPU      0.01s WALL (     126 calls)
     cegterg      :      0.42s CPU      0.44s WALL (      54 calls)

     Called by sum_band:
     sum_band:wei :      0.00s CPU      0.00s WALL (       9 calls)
     sum_band:loo :      0.09s CPU      0.10s WALL (       9 calls)
     sum_band:buf :      0.00s CPU      0.00s WALL (      54 calls)
     sum_band:ini :      0.01s CPU      0.00s WALL (      54 calls)
     sum_band:cal :      0.00s CPU      0.00s WALL (      54 calls)
     sum_band:bec :      0.00s CPU      0.00s WALL (      54 calls)
     addusdens    :      0.72s CPU      0.30s WALL (       9 calls)
     addusd:skk   :      0.00s CPU      0.00s WALL (      18 calls)
     addusd:dgemm :      0.14s CPU      0.07s WALL (      18 calls)
     addusd:qvan2 :      0.52s CPU      0.15s WALL (      18 calls)

     Called by *egterg:
     cdiaghg      :      0.02s CPU      0.02s WALL (     181 calls)
     cegterg:over :      0.01s CPU      0.01s WALL (     133 calls)
     cegterg:upda :      0.01s CPU      0.01s WALL (     133 calls)
     cegterg:last :      0.02s CPU      0.01s WALL (     107 calls)
     h_psi        :      0.36s CPU      0.38s WALL (     193 calls)
     s_psi        :      0.01s CPU      0.01s WALL (     193 calls)
     g_psi        :      0.00s CPU      0.00s WALL (     133 calls)

     Called by h_psi:
     h_psi:calbec :      0.01s CPU      0.01s WALL (     193 calls)
     vloc_psi     :      0.33s CPU      0.36s WALL (     193 calls)
     add_vuspsi   :      0.01s CPU      0.01s WALL (     193 calls)

     General routines
     calbec       :      0.01s CPU      0.01s WALL (     277 calls)
     fft          :      0.11s CPU      0.11s WALL (      58 calls)
     ffts         :      0.00s CPU      0.00s WALL (      18 calls)
     fftw         :      0.25s CPU      0.24s WALL (    3006 calls)
     interpolate  :      0.02s CPU      0.02s WALL (       9 calls)

     Parallel routines

     PWSCF        :      3.38s CPU      2.30s WALL


   This run was terminated on:  16:44:40  12Feb2021            

=------------------------------------------------------------------------------=
   JOB DONE.
=------------------------------------------------------------------------------=
Note: The following floating-point exceptions are signalling: IEEE_UNDERFLOW_FLAG IEEE_DENORMAL
